+ 0.1 1 3 tcp 40 ------- 1 1.0 3.0 0 0
- 0.1 1 3 tcp 40 ------- 1 1.0 3.0 0 0
r 0.11032 1 3 tcp 40 ------- 1 1.0 3.0 0 0
+ 0.11032 3 1 ack 40 ------- 1 3.0 1.0 0 1
- 0.11032 3 1 ack 40 ------- 1 3.0 1.0 0 1
r 0.12064 3 1 ack 40 ------- 1 3.0 1.0 0 1
+ 0.12064 1 3 tcp 1040 ------- 1 1.0 3.0 1 2
- 0.12064 1 3 tcp 1040 ------- 1 1.0 3.0 1 2
+ 0.12064 1 3 tcp 1040 ------- 1 1.0 3.0 2 3
- 0.12896 1 3 tcp 1040 ------- 1 1.0 3.0 2 3
r 0.13896 1 3 tcp 1040 ------- 1 1.0 3.0 1 2
+ 0.13896 3 1 ack 40 ------- 1 3.0 1.0 1 4
- 0.13896 3 1 ack 40 ------- 1 3.0 1.0 1 4
r 0.14728 1 3 tcp 1040 ------- 1 1.0 3.0 2 3
+ 0.14728 3 1 ack 40 ------- 1 3.0 1.0 2 5
- 0.14728 3 1 ack 40 ------- 1 3.0 1.0 2 5
r 0.14928 3 1 ack 40 ------- 1 3.0 1.0 1 4
+ 0.14928 1 3 tcp 1040 ------- 1 1.0 3.0 3 6
- 0.14928 1 3 tcp 1040 ------- 1 1.0 3.0 3 6
+ 0.14928 1 3 tcp 1040 ------- 1 1.0 3.0 4 7
r 0.1576 3 1 ack 40 ------- 1 3.0 1.0 2 5
+ 0.1576 1 3 tcp 1040 ------- 1 1.0 3.0 5 8
+ 0.1576 1 3 tcp 1040 ------- 1 1.0 3.0 6 9
- 0.1576 1 3 tcp 1040 ------- 1 1.0 3.0 4 7
- 0.16592 1 3 tcp 1040 ------- 1 1.0 3.0 5 8
r 0.1676 1 3 tcp 1040 ------- 1 1.0 3.0 3 6
+ 0.1676 3 1 ack 40 ------- 1 3.0 1.0 3 10
- 0.1676 3 1 ack 40 ------- 1 3.0 1.0 3 10
- 0.17424 1 3 tcp 1040 ------- 1 1.0 3.0 6 9
r 0.17592 1 3 tcp 1040 ------- 1 1.0 3.0 4 7
+ 0.17592 3 1 ack 40 ------- 1 3.0 1.0 4 11
- 0.17592 3 1 ack 40 ------- 1 3.0 1.0 4 11
r 0.17792 3 1 ack 40 ------- 1 3.0 1.0 3 10
+ 0.17792 1 3 tcp 1040 ------- 1 1.0 3.0 7 12
+ 0.17792 1 3 tcp 1040 ------- 1 1.0 3.0 8 13
- 0.18256 1 3 tcp 1040 ------- 1 1.0 3.0 7 12
r 0.18424 1 3 tcp 1040 ------- 1 1.0 3.0 5 8
+ 0.18424 3 1 ack 40 ------- 1 3.0 1.0 5 14
- 0.18424 3 1 ack 40 ------- 1 3.0 1.0 5 14
r 0.18624 3 1 ack 40 ------- 1 3.0 1.0 4 11
+ 0.18624 1 3 tcp 1040 ------- 1 1.0 3.0 9 15
+ 0.18624 1 3 tcp 1040 ------- 1 1.0 3.0 10 16
- 0.19088 1 3 tcp 1040 ------- 1 1.0 3.0 8 13
r 0.19256 1 3 tcp 1040 ------- 1 1.0 3.0 6 9
+ 0.19256 3 1 ack 40 ------- 1 3.0 1.0 6 17
- 0.19256 3 1 ack 40 ------- 1 3.0 1.0 6 17
r 0.19456 3 1 ack 40 ------- 1 3.0 1.0 5 14
+ 0.19456 1 3 tcp 1040 ------- 1 1.0 3.0 11 18
+ 0.19456 1 3 tcp 1040 ------- 1 1.0 3.0 12 19
- 0.1992 1 3 tcp 1040 ------- 1 1.0 3.0 9 15
+ 0.2 2 0 tcp 40 ------- 2 2.0 0.0 0 20
- 0.2 2 0 tcp 40 ------- 2 2.0 0.0 0 20
r 0.20088 1 3 tcp 1040 ------- 1 1.0 3.0 7 12
+ 0.20088 3 1 ack 40 ------- 1 3.0 1.0 7 21
- 0.20088 3 1 ack 40 ------- 1 3.0 1.0 7 21
r 0.20288 3 1 ack 40 ------- 1 3.0 1.0 6 17
+ 0.20288 1 3 tcp 1040 ------- 1 1.0 3.0 13 22
+ 0.20288 1 3 tcp 1040 ------- 1 1.0 3.0 14 23
- 0.20752 1 3 tcp 1040 ------- 1 1.0 3.0 10 16
r 0.2092 1 3 tcp 1040 ------- 1 1.0 3.0 8 13
+ 0.2092 3 1 ack 40 ------- 1 3.0 1.0 8 24
- 0.2092 3 1 ack 40 ------- 1 3.0 1.0 8 24
r 0.21032 2 0 tcp 40 ------- 2 2.0 0.0 0 20
+ 0.21032 0 2 ack 40 ------- 2 0.0 2.0 0 25
- 0.21032 0 2 ack 40 ------- 2 0.0 2.0 0 25
r 0.2112 3 1 ack 40 ------- 1 3.0 1.0 7 21
+ 0.2112 1 3 tcp 1040 ------- 1 1.0 3.0 15 26
+ 0.2112 1 3 tcp 1040 ------- 1 1.0 3.0 16 27
- 0.21584 1 3 tcp 1040 ------- 1 1.0 3.0 11 18
r 0.21752 1 3 tcp 1040 ------- 1 1.0 3.0 9 15
+ 0.21752 3 1 ack 40 ------- 1 3.0 1.0 9 28
- 0.21752 3 1 ack 40 ------- 1 3.0 1.0 9 28
r 0.21952 3 1 ack 40 ------- 1 3.0 1.0 8 24
+ 0.21952 1 3 tcp 1040 ------- 1 1.0 3.0 17 29
+ 0.21952 1 3 tcp 1040 ------- 1 1.0 3.0 18 30
r 0.22064 0 2 ack 40 ------- 2 0.0 2.0 0 25
+ 0.22064 2 0 tcp 1040 ------- 2 2.0 0.0 1 31
- 0.22064 2 0 tcp 1040 ------- 2 2.0 0.0 1 31
+ 0.22064 2 0 tcp 1040 ------- 2 2.0 0.0 2 32
- 0.22416 1 3 tcp 1040 ------- 1 1.0 3.0 12 19
r 0.22584 1 3 tcp 1040 ------- 1 1.0 3.0 10 16
+ 0.22584 3 1 ack 40 ------- 1 3.0 1.0 10 33
- 0.22584 3 1 ack 40 ------- 1 3.0 1.0 10 33
r 0.22784 3 1 ack 40 ------- 1 3.0 1.0 9 28
+ 0.22784 1 3 tcp 1040 ------- 1 1.0 3.0 19 34
+ 0.22784 1 3 tcp 1040 ------- 1 1.0 3.0 20 35
- 0.22896 2 0 tcp 1040 ------- 2 2.0 0.0 2 32
- 0.23248 1 3 tcp 1040 ------- 1 1.0 3.0 13 22
r 0.23416 1 3 tcp 1040 ------- 1 1.0 3.0 11 18
+ 0.23416 3 1 ack 40 ------- 1 3.0 1.0 11 36
- 0.23416 3 1 ack 40 ------- 1 3.0 1.0 11 36
r 0.23616 3 1 ack 40 ------- 1 3.0 1.0 10 33
+ 0.23616 1 3 tcp 1040 ------- 1 1.0 3.0 21 37
+ 0.23616 1 3 tcp 1040 ------- 1 1.0 3.0 22 38
r 0.23896 2 0 tcp 1040 ------- 2 2.0 0.0 1 31
+ 0.23896 0 2 ack 40 ------- 2 0.0 2.0 1 39
- 0.23896 0 2 ack 40 ------- 2 0.0 2.0 1 39
- 0.2408 1 3 tcp 1040 ------- 1 1.0 3.0 14 23
r 0.24248 1 3 tcp 1040 ------- 1 1.0 3.0 12 19
+ 0.24248 3 1 ack 40 ------- 1 3.0 1.0 12 40
- 0.24248 3 1 ack 40 ------- 1 3.0 1.0 12 40
r 0.24448 3 1 ack 40 ------- 1 3.0 1.0 11 36
+ 0.24448 1 3 tcp 1040 ------- 1 1.0 3.0 23 41
+ 0.24448 1 3 tcp 1040 ------- 1 1.0 3.0 24 42
r 0.24728 2 0 tcp 1040 ------- 2 2.0 0.0 2 32
+ 0.24728 0 2 ack 40 ------- 2 0.0 2.0 2 43
- 0.24728 0 2 ack 40 ------- 2 0.0 2.0 2 43
- 0.24912 1 3 tcp 1040 ------- 1 1.0 3.0 15 26
r 0.24928 0 2 ack 40 ------- 2 0.0 2.0 1 39
+ 0.24928 2 0 tcp 1040 ------- 2 2.0 0.0 3 44
- 0.24928 2 0 tcp 1040 ------- 2 2.0 0.0 3 44
+ 0.24928 2 0 tcp 1040 ------- 2 2.0 0.0 4 45
r 0.2508 1 3 tcp 1040 ------- 1 1.0 3.0 13 22
+ 0.2508 3 1 ack 40 ------- 1 3.0 1.0 13 46
- 0.2508 3 1 ack 40 ------- 1 3.0 1.0 13 46
r 0.2528 3 1 ack 40 ------- 1 3.0 1.0 12 40
+ 0.2528 1 3 tcp 1040 ------- 1 1.0 3.0 25 47
+ 0.2528 1 3 tcp 1040 ------- 1 1.0 3.0 26 48
- 0.25744 1 3 tcp 1040 ------- 1 1.0 3.0 16 27
r 0.2576 0 2 ack 40 ------- 2 0.0 2.0 2 43
+ 0.2576 2 0 tcp 1040 ------- 2 2.0 0.0 5 49
+ 0.2576 2 0 tcp 1040 ------- 2 2.0 0.0 6 50
- 0.2576 2 0 tcp 1040 ------- 2 2.0 0.0 4 45
r 0.25912 1 3 tcp 1040 ------- 1 1.0 3.0 14 23
+ 0.25912 3 1 ack 40 ------- 1 3.0 1.0 14 51
- 0.25912 3 1 ack 40 ------- 1 3.0 1.0 14 51
r 0.26112 3 1 ack 40 ------- 1 3.0 1.0 13 46
+ 0.26112 1 3 tcp 1040 ------- 1 1.0 3.0 27 52
+ 0.26112 1 3 tcp 1040 ------- 1 1.0 3.0 28 53
- 0.26576 1 3 tcp 1040 ------- 1 1.0 3.0 17 29
- 0.26592 2 0 tcp 1040 ------- 2 2.0 0.0 5 49
r 0.26744 1 3 tcp 1040 ------- 1 1.0 3.0 15 26
+ 0.26744 3 1 ack 40 ------- 1 3.0 1.0 15 54
- 0.26744 3 1 ack 40 ------- 1 3.0 1.0 15 54
r 0.2676 2 0 tcp 1040 ------- 2 2.0 0.0 3 44
+ 0.2676 0 2 ack 40 ------- 2 0.0 2.0 3 55
- 0.2676 0 2 ack 40 ------- 2 0.0 2.0 3 55
r 0.26944 3 1 ack 40 ------- 1 3.0 1.0 14 51
+ 0.26944 1 3 tcp 1040 ------- 1 1.0 3.0 29 56
+ 0.26944 1 3 tcp 1040 ------- 1 1.0 3.0 30 57
- 0.27408 1 3 tcp 1040 ------- 1 1.0 3.0 18 30
- 0.27424 2 0 tcp 1040 ------- 2 2.0 0.0 6 50
r 0.27576 1 3 tcp 1040 ------- 1 1.0 3.0 16 27
+ 0.27576 3 1 ack 40 ------- 1 3.0 1.0 16 58
- 0.27576 3 1 ack 40 ------- 1 3.0 1.0 16 58
r 0.27592 2 0 tcp 1040 ------- 2 2.0 0.0 4 45
+ 0.27592 0 2 ack 40 ------- 2 0.0 2.0 4 59
- 0.27592 0 2 ack 40 ------- 2 0.0 2.0 4 59
r 0.27776 3 1 ack 40 ------- 1 3.0 1.0 15 54
+ 0.27776 1 3 tcp 1040 ------- 1 1.0 3.0 31 60
+ 0.27776 1 3 tcp 1040 ------- 1 1.0 3.0 32 61
r 0.27792 0 2 ack 40 ------- 2 0.0 2.0 3 55
+ 0.27792 2 0 tcp 1040 ------- 2 2.0 0.0 7 62
+ 0.27792 2 0 tcp 1040 ------- 2 2.0 0.0 8 63
- 0.2824 1 3 tcp 1040 ------- 1 1.0 3.0 19 34
- 0.28256 2 0 tcp 1040 ------- 2 2.0 0.0 7 62
r 0.28408 1 3 tcp 1040 ------- 1 1.0 3.0 17 29
+ 0.28408 3 1 ack 40 ------- 1 3.0 1.0 17 64
- 0.28408 3 1 ack 40 ------- 1 3.0 1.0 17 64
r 0.28424 2 0 tcp 1040 ------- 2 2.0 0.0 5 49
+ 0.28424 0 2 ack 40 ------- 2 0.0 2.0 5 65
- 0.28424 0 2 ack 40 ------- 2 0.0 2.0 5 65
r 0.28608 3 1 ack 40 ------- 1 3.0 1.0 16 58
+ 0.28608 1 3 tcp 1040 ------- 1 1.0 3.0 33 66
+ 0.28608 1 3 tcp 1040 ------- 1 1.0 3.0 34 67
r 0.28624 0 2 ack 40 ------- 2 0.0 2.0 4 59
+ 0.28624 2 0 tcp 1040 ------- 2 2.0 0.0 9 68
+ 0.28624 2 0 tcp 1040 ------- 2 2.0 0.0 10 69
- 0.29072 1 3 tcp 1040 ------- 1 1.0 3.0 20 35
- 0.29088 2 0 tcp 1040 ------- 2 2.0 0.0 8 63
r 0.2924 1 3 tcp 1040 ------- 1 1.0 3.0 18 30
+ 0.2924 3 1 ack 40 ------- 1 3.0 1.0 18 70
- 0.2924 3 1 ack 40 ------- 1 3.0 1.0 18 70
r 0.29256 2 0 tcp 1040 ------- 2 2.0 0.0 6 50
+ 0.29256 0 2 ack 40 ------- 2 0.0 2.0 6 71
- 0.29256 0 2 ack 40 ------- 2 0.0 2.0 6 71
r 0.2944 3 1 ack 40 ------- 1 3.0 1.0 17 64
+ 0.2944 1 3 tcp 1040 ------- 1 1.0 3.0 35 72
+ 0.2944 1 3 tcp 1040 ------- 1 1.0 3.0 36 73
r 0.29456 0 2 ack 40 ------- 2 0.0 2.0 5 65
+ 0.29456 2 0 tcp 1040 ------- 2 2.0 0.0 11 74
+ 0.29456 2 0 tcp 1040 ------- 2 2.0 0.0 12 75
- 0.29904 1 3 tcp 1040 ------- 1 1.0 3.0 21 37
- 0.2992 2 0 tcp 1040 ------- 2 2.0 0.0 9 68
r 0.30072 1 3 tcp 1040 ------- 1 1.0 3.0 19 34
+ 0.30072 3 1 ack 40 ------- 1 3.0 1.0 19 76
- 0.30072 3 1 ack 40 ------- 1 3.0 1.0 19 76
r 0.30088 2 0 tcp 1040 ------- 2 2.0 0.0 7 62
+ 0.30088 0 2 ack 40 ------- 2 0.0 2.0 7 77
- 0.30088 0 2 ack 40 ------- 2 0.0 2.0 7 77
r 0.30272 3 1 ack 40 ------- 1 3.0 1.0 18 70
+ 0.30272 1 3 tcp 1040 ------- 1 1.0 3.0 37 78
+ 0.30272 1 3 tcp 1040 ------- 1 1.0 3.0 38 79
r 0.30288 0 2 ack 40 ------- 2 0.0 2.0 6 71
+ 0.30288 2 0 tcp 1040 ------- 2 2.0 0.0 13 80
+ 0.30288 2 0 tcp 1040 ------- 2 2.0 0.0 14 81
- 0.30736 1 3 tcp 1040 ------- 1 1.0 3.0 22 38
- 0.30752 2 0 tcp 1040 ------- 2 2.0 0.0 10 69
r 0.30904 1 3 tcp 1040 ------- 1 1.0 3.0 20 35
+ 0.30904 3 1 ack 40 ------- 1 3.0 1.0 20 82
- 0.30904 3 1 ack 40 ------- 1 3.0 1.0 20 82
r 0.3092 2 0 tcp 1040 ------- 2 2.0 0.0 8 63
+ 0.3092 0 2 ack 40 ------- 2 0.0 2.0 8 83
- 0.3092 0 2 ack 40 ------- 2 0.0 2.0 8 83
r 0.31104 3 1 ack 40 ------- 1 3.0 1.0 19 76
+ 0.31104 1 3 tcp 1040 ------- 1 1.0 3.0 39 84
r 0.3112 0 2 ack 40 ------- 2 0.0 2.0 7 77
+ 0.3112 2 0 tcp 1040 ------- 2 2.0 0.0 15 85
+ 0.3112 2 0 tcp 1040 ------- 2 2.0 0.0 16 86
- 0.31568 1 3 tcp 1040 ------- 1 1.0 3.0 23 41
- 0.31584 2 0 tcp 1040 ------- 2 2.0 0.0 11 74
r 0.31736 1 3 tcp 1040 ------- 1 1.0 3.0 21 37
+ 0.31736 3 1 ack 40 ------- 1 3.0 1.0 21 87
- 0.31736 3 1 ack 40 ------- 1 3.0 1.0 21 87
r 0.31752 2 0 tcp 1040 ------- 2 2.0 0.0 9 68
+ 0.31752 0 2 ack 40 ------- 2 0.0 2.0 9 88
- 0.31752 0 2 ack 40 ------- 2 0.0 2.0 9 88
r 0.31936 3 1 ack 40 ------- 1 3.0 1.0 20 82
+ 0.31936 1 3 tcp 1040 ------- 1 1.0 3.0 40 89
r 0.31952 0 2 ack 40 ------- 2 0.0 2.0 8 83
+ 0.31952 2 0 tcp 1040 ------- 2 2.0 0.0 17 90
+ 0.31952 2 0 tcp 1040 ------- 2 2.0 0.0 18 91
- 0.324 1 3 tcp 1040 ------- 1 1.0 3.0 24 42
- 0.32416 2 0 tcp 1040 ------- 2 2.0 0.0 12 75
r 0.32568 1 3 tcp 1040 ------- 1 1.0 3.0 22 38
+ 0.32568 3 1 ack 40 ------- 1 3.0 1.0 22 92
- 0.32568 3 1 ack 40 ------- 1 3.0 1.0 22 92
r 0.32584 2 0 tcp 1040 ------- 2 2.0 0.0 10 69
+ 0.32584 0 2 ack 40 ------- 2 0.0 2.0 10 93
- 0.32584 0 2 ack 40 ------- 2 0.0 2.0 10 93
r 0.32768 3 1 ack 40 ------- 1 3.0 1.0 21 87
+ 0.32768 1 3 tcp 1040 ------- 1 1.0 3.0 41 94
r 0.32784 0 2 ack 40 ------- 2 0.0 2.0 9 88
+ 0.32784 2 0 tcp 1040 ------- 2 2.0 0.0 19 95
+ 0.32784 2 0 tcp 1040 ------- 2 2.0 0.0 20 96
- 0.33232 1 3 tcp 1040 ------- 1 1.0 3.0 25 47
- 0.33248 2 0 tcp 1040 ------- 2 2.0 0.0 13 80
r 0.334 1 3 tcp 1040 ------- 1 1.0 3.0 23 41
+ 0.334 3 1 ack 40 ------- 1 3.0 1.0 23 97
- 0.334 3 1 ack 40 ------- 1 3.0 1.0 23 97
r 0.33416 2 0 tcp 1040 ------- 2 2.0 0.0 11 74
+ 0.33416 0 2 ack 40 ------- 2 0.0 2.0 11 98
- 0.33416 0 2 ack 40 ------- 2 0.0 2.0 11 98
r 0.336 3 1 ack 40 ------- 1 3.0 1.0 22 92
+ 0.336 1 3 tcp 1040 ------- 1 1.0 3.0 42 99
r 0.33616 0 2 ack 40 ------- 2 0.0 2.0 10 93
+ 0.33616 2 0 tcp 1040 ------- 2 2.0 0.0 21 100
+ 0.33616 2 0 tcp 1040 ------- 2 2.0 0.0 22 101
- 0.34064 1 3 tcp 1040 ------- 1 1.0 3.0 26 48
- 0.3408 2 0 tcp 1040 ------- 2 2.0 0.0 14 81
r 0.34232 1 3 tcp 1040 ------- 1 1.0 3.0 24 42
+ 0.34232 3 1 ack 40 ------- 1 3.0 1.0 24 102
- 0.34232 3 1 ack 40 ------- 1 3.0 1.0 24 102
r 0.34248 2 0 tcp 1040 ------- 2 2.0 0.0 12 75
+ 0.34248 0 2 ack 40 ------- 2 0.0 2.0 12 103
- 0.34248 0 2 ack 40 ------- 2 0.0 2.0 12 103
r 0.34432 3 1 ack 40 ------- 1 3.0 1.0 23 97
+ 0.34432 1 3 tcp 1040 ------- 1 1.0 3.0 43 104
r 0.34448 0 2 ack 40 ------- 2 0.0 2.0 11 98
+ 0.34448 2 0 tcp 1040 ------- 2 2.0 0.0 23 105
+ 0.34448 2 0 tcp 1040 ------- 2 2.0 0.0 24 106
- 0.34896 1 3 tcp 1040 ------- 1 1.0 3.0 27 52
- 0.34912 2 0 tcp 1040 ------- 2 2.0 0.0 15 85
r 0.35064 1 3 tcp 1040 ------- 1 1.0 3.0 25 47
+ 0.35064 3 1 ack 40 ------- 1 3.0 1.0 25 107
- 0.35064 3 1 ack 40 ------- 1 3.0 1.0 25 107
r 0.3508 2 0 tcp 1040 ------- 2 2.0 0.0 13 80
+ 0.3508 0 2 ack 40 ------- 2 0.0 2.0 13 108
- 0.3508 0 2 ack 40 ------- 2 0.0 2.0 13 108
r 0.35264 3 1 ack 40 ------- 1 3.0 1.0 24 102
+ 0.35264 1 3 tcp 1040 ------- 1 1.0 3.0 44 109
r 0.3528 0 2 ack 40 ------- 2 0.0 2.0 12 103
+ 0.3528 2 0 tcp 1040 ------- 2 2.0 0.0 25 110
+ 0.3528 2 0 tcp 1040 ------- 2 2.0 0.0 26 111
- 0.35728 1 3 tcp 1040 ------- 1 1.0 3.0 28 53
- 0.35744 2 0 tcp 1040 ------- 2 2.0 0.0 16 86
r 0.35896 1 3 tcp 1040 ------- 1 1.0 3.0 26 48
+ 0.35896 3 1 ack 40 ------- 1 3.0 1.0 26 112
- 0.35896 3 1 ack 40 ------- 1 3.0 1.0 26 112
r 0.35912 2 0 tcp 1040 ------- 2 2.0 0.0 14 81
+ 0.35912 0 2 ack 40 ------- 2 0.0 2.0 14 113
- 0.35912 0 2 ack 40 ------- 2 0.0 2.0 14 113
r 0.36096 3 1 ack 40 ------- 1 3.0 1.0 25 107
+ 0.36096 1 3 tcp 1040 ------- 1 1.0 3.0 45 114
r 0.36112 0 2 ack 40 ------- 2 0.0 2.0 13 108
+ 0.36112 2 0 tcp 1040 ------- 2 2.0 0.0 27 115
+ 0.36112 2 0 tcp 1040 ------- 2 2.0 0.0 28 116
- 0.3656 1 3 tcp 1040 ------- 1 1.0 3.0 29 56
- 0.36576 2 0 tcp 1040 ------- 2 2.0 0.0 17 90
r 0.36728 1 3 tcp 1040 ------- 1 1.0 3.0 27 52
+ 0.36728 3 1 ack 40 ------- 1 3.0 1.0 27 117
- 0.36728 3 1 ack 40 ------- 1 3.0 1.0 27 117
r 0.36744 2 0 tcp 1040 ------- 2 2.0 0.0 15 85
+ 0.36744 0 2 ack 40 ------- 2 0.0 2.0 15 118
- 0.36744 0 2 ack 40 ------- 2 0.0 2.0 15 118
r 0.36928 3 1 ack 40 ------- 1 3.0 1.0 26 112
+ 0.36928 1 3 tcp 1040 ------- 1 1.0 3.0 46 119
r 0.36944 0 2 ack 40 ------- 2 0.0 2.0 14 113
+ 0.36944 2 0 tcp 1040 ------- 2 2.0 0.0 29 120
+ 0.36944 2 0 tcp 1040 ------- 2 2.0 0.0 30 121
- 0.37392 1 3 tcp 1040 ------- 1 1.0 3.0 30 57
- 0.37408 2 0 tcp 1040 ------- 2 2.0 0.0 18 91
r 0.3756 1 3 tcp 1040 ------- 1 1.0 3.0 28 53
+ 0.3756 3 1 ack 40 ------- 1 3.0 1.0 28 122
- 0.3756 3 1 ack 40 ------- 1 3.0 1.0 28 122
r 0.37576 2 0 tcp 1040 ------- 2 2.0 0.0 16 86
+ 0.37576 0 2 ack 40 ------- 2 0.0 2.0 16 123
- 0.37576 0 2 ack 40 ------- 2 0.0 2.0 16 123
r 0.3776 3 1 ack 40 ------- 1 3.0 1.0 27 117
+ 0.3776 1 3 tcp 1040 ------- 1 1.0 3.0 47 124
r 0.37776 0 2 ack 40 ------- 2 0.0 2.0 15 118
+ 0.37776 2 0 tcp 1040 ------- 2 2.0 0.0 31 125
+ 0.37776 2 0 tcp 1040 ------- 2 2.0 0.0 32 126
- 0.38224 1 3 tcp 1040 ------- 1 1.0 3.0 31 60
- 0.3824 2 0 tcp 1040 ------- 2 2.0 0.0 19 95
r 0.38392 1 3 tcp 1040 ------- 1 1.0 3.0 29 56
+ 0.38392 3 1 ack 40 ------- 1 3.0 1.0 29 127
- 0.38392 3 1 ack 40 ------- 1 3.0 1.0 29 127
r 0.38408 2 0 tcp 1040 ------- 2 2.0 0.0 17 90
+ 0.38408 0 2 ack 40 ------- 2 0.0 2.0 17 128
- 0.38408 0 2 ack 40 ------- 2 0.0 2.0 17 128
r 0.38592 3 1 ack 40 ------- 1 3.0 1.0 28 122
+ 0.38592 1 3 tcp 1040 ------- 1 1.0 3.0 48 129
r 0.38608 0 2 ack 40 ------- 2 0.0 2.0 16 123
+ 0.38608 2 0 tcp 1040 ------- 2 2.0 0.0 33 130
+ 0.38608 2 0 tcp 1040 ------- 2 2.0 0.0 34 131
- 0.39056 1 3 tcp 1040 ------- 1 1.0 3.0 32 61
- 0.39072 2 0 tcp 1040 ------- 2 2.0 0.0 20 96
r 0.39224 1 3 tcp 1040 ------- 1 1.0 3.0 30 57
+ 0.39224 3 1 ack 40 ------- 1 3.0 1.0 30 132
- 0.39224 3 1 ack 40 ------- 1 3.0 1.0 30 132
r 0.3924 2 0 tcp 1040 ------- 2 2.0 0.0 18 91
+ 0.3924 0 2 ack 40 ------- 2 0.0 2.0 18 133
- 0.3924 0 2 ack 40 ------- 2 0.0 2.0 18 133
r 0.39424 3 1 ack 40 ------- 1 3.0 1.0 29 127
+ 0.39424 1 3 tcp 1040 ------- 1 1.0 3.0 49 134
r 0.3944 0 2 ack 40 ------- 2 0.0 2.0 17 128
+ 0.3944 2 0 tcp 1040 ------- 2 2.0 0.0 35 135
+ 0.3944 2 0 tcp 1040 ------- 2 2.0 0.0 36 136
- 0.39888 1 3 tcp 1040 ------- 1 1.0 3.0 33 66
- 0.39904 2 0 tcp 1040 ------- 2 2.0 0.0 21 100
r 0.40056 1 3 tcp 1040 ------- 1 1.0 3.0 31 60
+ 0.40056 3 1 ack 40 ------- 1 3.0 1.0 31 137
- 0.40056 3 1 ack 40 ------- 1 3.0 1.0 31 137
r 0.40072 2 0 tcp 1040 ------- 2 2.0 0.0 19 95
+ 0.40072 0 2 ack 40 ------- 2 0.0 2.0 19 138
- 0.40072 0 2 ack 40 ------- 2 0.0 2.0 19 138
r 0.40256 3 1 ack 40 ------- 1 3.0 1.0 30 132
+ 0.40256 1 3 tcp 1040 ------- 1 1.0 3.0 50 139
r 0.40272 0 2 ack 40 ------- 2 0.0 2.0 18 133
+ 0.40272 2 0 tcp 1040 ------- 2 2.0 0.0 37 140
+ 0.40272 2 0 tcp 1040 ------- 2 2.0 0.0 38 141
- 0.4072 1 3 tcp 1040 ------- 1 1.0 3.0 34 67
- 0.40736 2 0 tcp 1040 ------- 2 2.0 0.0 22 101
r 0.40888 1 3 tcp 1040 ------- 1 1.0 3.0 32 61
+ 0.40888 3 1 ack 40 ------- 1 3.0 1.0 32 142
- 0.40888 3 1 ack 40 ------- 1 3.0 1.0 32 142
r 0.40904 2 0 tcp 1040 ------- 2 2.0 0.0 20 96
+ 0.40904 0 2 ack 40 ------- 2 0.0 2.0 20 143
- 0.40904 0 2 ack 40 ------- 2 0.0 2.0 20 143
r 0.41088 3 1 ack 40 ------- 1 3.0 1.0 31 137
+ 0.41088 1 3 tcp 1040 ------- 1 1.0 3.0 51 144
r 0.41104 0 2 ack 40 ------- 2 0.0 2.0 19 138
+ 0.41104 2 0 tcp 1040 ------- 2 2.0 0.0 39 145
- 0.41552 1 3 tcp 1040 ------- 1 1.0 3.0 35 72
- 0.41568 2 0 tcp 1040 ------- 2 2.0 0.0 23 105
r 0.4172 1 3 tcp 1040 ------- 1 1.0 3.0 33 66
+ 0.4172 3 1 ack 40 ------- 1 3.0 1.0 33 146
- 0.4172 3 1 ack 40 ------- 1 3.0 1.0 33 146
r 0.41736 2 0 tcp 1040 ------- 2 2.0 0.0 21 100
+ 0.41736 0 2 ack 40 ------- 2 0.0 2.0 21 147
- 0.41736 0 2 ack 40 ------- 2 0.0 2.0 21 147
r 0.4192 3 1 ack 40 ------- 1 3.0 1.0 32 142
+ 0.4192 1 3 tcp 1040 ------- 1 1.0 3.0 52 148
r 0.41936 0 2 ack 40 ------- 2 0.0 2.0 20 143
+ 0.41936 2 0 tcp 1040 ------- 2 2.0 0.0 40 149
- 0.42384 1 3 tcp 1040 ------- 1 1.0 3.0 36 73
- 0.424 2 0 tcp 1040 ------- 2 2.0 0.0 24 106
r 0.42552 1 3 tcp 1040 ------- 1 1.0 3.0 34 67
+ 0.42552 3 1 ack 40 ------- 1 3.0 1.0 34 150
- 0.42552 3 1 ack 40 ------- 1 3.0 1.0 34 150
r 0.42568 2 0 tcp 1040 ------- 2 2.0 0.0 22 101
+ 0.42568 0 2 ack 40 ------- 2 0.0 2.0 22 151
- 0.42568 0 2 ack 40 ------- 2 0.0 2.0 22 151
r 0.42752 3 1 ack 40 ------- 1 3.0 1.0 33 146
+ 0.42752 1 3 tcp 1040 ------- 1 1.0 3.0 53 152
r 0.42768 0 2 ack 40 ------- 2 0.0 2.0 21 147
+ 0.42768 2 0 tcp 1040 ------- 2 2.0 0.0 41 153
- 0.43216 1 3 tcp 1040 ------- 1 1.0 3.0 37 78
- 0.43232 2 0 tcp 1040 ------- 2 2.0 0.0 25 110
r 0.43384 1 3 tcp 1040 ------- 1 1.0 3.0 35 72
+ 0.43384 3 1 ack 40 ------- 1 3.0 1.0 35 154
- 0.43384 3 1 ack 40 ------- 1 3.0 1.0 35 154
r 0.434 2 0 tcp 1040 ------- 2 2.0 0.0 23 105
+ 0.434 0 2 ack 40 ------- 2 0.0 2.0 23 155
- 0.434 0 2 ack 40 ------- 2 0.0 2.0 23 155
r 0.43584 3 1 ack 40 ------- 1 3.0 1.0 34 150
+ 0.43584 1 3 tcp 1040 ------- 1 1.0 3.0 54 156
r 0.436 0 2 ack 40 ------- 2 0.0 2.0 22 151
+ 0.436 2 0 tcp 1040 ------- 2 2.0 0.0 42 157
- 0.44048 1 3 tcp 1040 ------- 1 1.0 3.0 38 79
- 0.44064 2 0 tcp 1040 ------- 2 2.0 0.0 26 111
r 0.44216 1 3 tcp 1040 ------- 1 1.0 3.0 36 73
+ 0.44216 3 1 ack 40 ------- 1 3.0 1.0 36 158
- 0.44216 3 1 ack 40 ------- 1 3.0 1.0 36 158
r 0.44232 2 0 tcp 1040 ------- 2 2.0 0.0 24 106
+ 0.44232 0 2 ack 40 ------- 2 0.0 2.0 24 159
- 0.44232 0 2 ack 40 ------- 2 0.0 2.0 24 159
r 0.44416 3 1 ack 40 ------- 1 3.0 1.0 35 154
+ 0.44416 1 3 tcp 1040 ------- 1 1.0 3.0 55 160
r 0.44432 0 2 ack 40 ------- 2 0.0 2.0 23 155
+ 0.44432 2 0 tcp 1040 ------- 2 2.0 0.0 43 161
- 0.4488 1 3 tcp 1040 ------- 1 1.0 3.0 39 84
- 0.44896 2 0 tcp 1040 ------- 2 2.0 0.0 27 115
r 0.45048 1 3 tcp 1040 ------- 1 1.0 3.0 37 78
+ 0.45048 3 1 ack 40 ------- 1 3.0 1.0 37 162
- 0.45048 3 1 ack 40 ------- 1 3.0 1.0 37 162
r 0.45064 2 0 tcp 1040 ------- 2 2.0 0.0 25 110
+ 0.45064 0 2 ack 40 ------- 2 0.0 2.0 25 163
- 0.45064 0 2 ack 40 ------- 2 0.0 2.0 25 163
r 0.45248 3 1 ack 40 ------- 1 3.0 1.0 36 158
+ 0.45248 1 3 tcp 1040 ------- 1 1.0 3.0 56 164
r 0.45264 0 2 ack 40 ------- 2 0.0 2.0 24 159
+ 0.45264 2 0 tcp 1040 ------- 2 2.0 0.0 44 165
- 0.45712 1 3 tcp 1040 ------- 1 1.0 3.0 40 89
- 0.45728 2 0 tcp 1040 ------- 2 2.0 0.0 28 116
r 0.4588 1 3 tcp 1040 ------- 1 1.0 3.0 38 79
+ 0.4588 3 1 ack 40 ------- 1 3.0 1.0 38 166
- 0.4588 3 1 ack 40 ------- 1 3.0 1.0 38 166
r 0.45896 2 0 tcp 1040 ------- 2 2.0 0.0 26 111
+ 0.45896 0 2 ack 40 ------- 2 0.0 2.0 26 167
- 0.45896 0 2 ack 40 ------- 2 0.0 2.0 26 167
r 0.4608 3 1 ack 40 ------- 1 3.0 1.0 37 162
+ 0.4608 1 3 tcp 1040 ------- 1 1.0 3.0 57 168
r 0.46096 0 2 ack 40 ------- 2 0.0 2.0 25 163
+ 0.46096 2 0 tcp 1040 ------- 2 2.0 0.0 45 169
- 0.46544 1 3 tcp 1040 ------- 1 1.0 3.0 41 94
- 0.4656 2 0 tcp 1040 ------- 2 2.0 0.0 29 120
r 0.46712 1 3 tcp 1040 ------- 1 1.0 3.0 39 84
+ 0.46712 3 1 ack 40 ------- 1 3.0 1.0 39 170
- 0.46712 3 1 ack 40 ------- 1 3.0 1.0 39 170
r 0.46728 2 0 tcp 1040 ------- 2 2.0 0.0 27 115
+ 0.46728 0 2 ack 40 ------- 2 0.0 2.0 27 171
- 0.46728 0 2 ack 40 ------- 2 0.0 2.0 27 171
r 0.46912 3 1 ack 40 ------- 1 3.0 1.0 38 166
+ 0.46912 1 3 tcp 1040 ------- 1 1.0 3.0 58 172
r 0.46928 0 2 ack 40 ------- 2 0.0 2.0 26 167
+ 0.46928 2 0 tcp 1040 ------- 2 2.0 0.0 46 173
- 0.47376 1 3 tcp 1040 ------- 1 1.0 3.0 42 99
- 0.47392 2 0 tcp 1040 ------- 2 2.0 0.0 30 121
r 0.47544 1 3 tcp 1040 ------- 1 1.0 3.0 40 89
+ 0.47544 3 1 ack 40 ------- 1 3.0 1.0 40 174
- 0.47544 3 1 ack 40 ------- 1 3.0 1.0 40 174
r 0.4756 2 0 tcp 1040 ------- 2 2.0 0.0 28 116
+ 0.4756 0 2 ack 40 ------- 2 0.0 2.0 28 175
- 0.4756 0 2 ack 40 ------- 2 0.0 2.0 28 175
r 0.47744 3 1 ack 40 ------- 1 3.0 1.0 39 170
+ 0.47744 1 3 tcp 1040 ------- 1 1.0 3.0 59 176
r 0.4776 0 2 ack 40 ------- 2 0.0 2.0 27 171
+ 0.4776 2 0 tcp 1040 ------- 2 2.0 0.0 47 177
- 0.48208 1 3 tcp 1040 ------- 1 1.0 3.0 43 104
- 0.48224 2 0 tcp 1040 ------- 2 2.0 0.0 31 125
r 0.48376 1 3 tcp 1040 ------- 1 1.0 3.0 41 94
+ 0.48376 3 1 ack 40 ------- 1 3.0 1.0 41 178
- 0.48376 3 1 ack 40 ------- 1 3.0 1.0 41 178
r 0.48392 2 0 tcp 1040 ------- 2 2.0 0.0 29 120
+ 0.48392 0 2 ack 40 ------- 2 0.0 2.0 29 179
- 0.48392 0 2 ack 40 ------- 2 0.0 2.0 29 179
r 0.48576 3 1 ack 40 ------- 1 3.0 1.0 40 174
+ 0.48576 1 3 tcp 1040 ------- 1 1.0 3.0 60 180
r 0.48592 0 2 ack 40 ------- 2 0.0 2.0 28 175
+ 0.48592 2 0 tcp 1040 ------- 2 2.0 0.0 48 181
- 0.4904 1 3 tcp 1040 ------- 1 1.0 3.0 44 109
- 0.49056 2 0 tcp 1040 ------- 2 2.0 0.0 32 126
r 0.49208 1 3 tcp 1040 ------- 1 1.0 3.0 42 99
+ 0.49208 3 1 ack 40 ------- 1 3.0 1.0 42 182
- 0.49208 3 1 ack 40 ------- 1 3.0 1.0 42 182
r 0.49224 2 0 tcp 1040 ------- 2 2.0 0.0 30 121
+ 0.49224 0 2 ack 40 ------- 2 0.0 2.0 30 183
- 0.49224 0 2 ack 40 ------- 2 0.0 2.0 30 183
r 0.49408 3 1 ack 40 ------- 1 3.0 1.0 41 178
+ 0.49408 1 3 tcp 1040 ------- 1 1.0 3.0 61 184
r 0.49424 0 2 ack 40 ------- 2 0.0 2.0 29 179
+ 0.49424 2 0 tcp 1040 ------- 2 2.0 0.0 49 185
- 0.49872 1 3 tcp 1040 ------- 1 1.0 3.0 45 114
- 0.49888 2 0 tcp 1040 ------- 2 2.0 0.0 33 130
r 0.5004 1 3 tcp 1040 ------- 1 1.0 3.0 43 104
+ 0.5004 3 1 ack 40 ------- 1 3.0 1.0 43 186
- 0.5004 3 1 ack 40 ------- 1 3.0 1.0 43 186
r 0.50056 2 0 tcp 1040 ------- 2 2.0 0.0 31 125
+ 0.50056 0 2 ack 40 ------- 2 0.0 2.0 31 187
- 0.50056 0 2 ack 40 ------- 2 0.0 2.0 31 187
r 0.5024 3 1 ack 40 ------- 1 3.0 1.0 42 182
+ 0.5024 1 3 tcp 1040 ------- 1 1.0 3.0 62 188
r 0.50256 0 2 ack 40 ------- 2 0.0 2.0 30 183
+ 0.50256 2 0 tcp 1040 ------- 2 2.0 0.0 50 189
- 0.50704 1 3 tcp 1040 ------- 1 1.0 3.0 46 119
- 0.5072 2 0 tcp 1040 ------- 2 2.0 0.0 34 131
r 0.50872 1 3 tcp 1040 ------- 1 1.0 3.0 44 109
+ 0.50872 3 1 ack 40 ------- 1 3.0 1.0 44 190
- 0.50872 3 1 ack 40 ------- 1 3.0 1.0 44 190
r 0.50888 2 0 tcp 1040 ------- 2 2.0 0.0 32 126
+ 0.50888 0 2 ack 40 ------- 2 0.0 2.0 32 191
- 0.50888 0 2 ack 40 ------- 2 0.0 2.0 32 191
r 0.51072 3 1 ack 40 ------- 1 3.0 1.0 43 186
+ 0.51072 1 3 tcp 1040 ------- 1 1.0 3.0 63 192
r 0.51088 0 2 ack 40 ------- 2 0.0 2.0 31 187
+ 0.51088 2 0 tcp 1040 ------- 2 2.0 0.0 51 193
- 0.51536 1 3 tcp 1040 ------- 1 1.0 3.0 47 124
- 0.51552 2 0 tcp 1040 ------- 2 2.0 0.0 35 135
r 0.51704 1 3 tcp 1040 ------- 1 1.0 3.0 45 114
+ 0.51704 3 1 ack 40 ------- 1 3.0 1.0 45 194
- 0.51704 3 1 ack 40 ------- 1 3.0 1.0 45 194
r 0.5172 2 0 tcp 1040 ------- 2 2.0 0.0 33 130
+ 0.5172 0 2 ack 40 ------- 2 0.0 2.0 33 195
- 0.5172 0 2 ack 40 ------- 2 0.0 2.0 33 195
r 0.51904 3 1 ack 40 ------- 1 3.0 1.0 44 190
+ 0.51904 1 3 tcp 1040 ------- 1 1.0 3.0 64 196
r 0.5192 0 2 ack 40 ------- 2 0.0 2.0 32 191
+ 0.5192 2 0 tcp 1040 ------- 2 2.0 0.0 52 197
- 0.52368 1 3 tcp 1040 ------- 1 1.0 3.0 48 129
- 0.52384 2 0 tcp 1040 ------- 2 2.0 0.0 36 136
r 0.52536 1 3 tcp 1040 ------- 1 1.0 3.0 46 119
+ 0.52536 3 1 ack 40 ------- 1 3.0 1.0 46 198
- 0.52536 3 1 ack 40 ------- 1 3.0 1.0 46 198
r 0.52552 2 0 tcp 1040 ------- 2 2.0 0.0 34 131
+ 0.52552 0 2 ack 40 ------- 2 0.0 2.0 34 199
- 0.52552 0 2 ack 40 ------- 2 0.0 2.0 34 199
r 0.52736 3 1 ack 40 ------- 1 3.0 1.0 45 194
+ 0.52736 1 3 tcp 1040 ------- 1 1.0 3.0 65 200
r 0.52752 0 2 ack 40 ------- 2 0.0 2.0 33 195
+ 0.52752 2 0 tcp 1040 ------- 2 2.0 0.0 53 201
- 0.532 1 3 tcp 1040 ------- 1 1.0 3.0 49 134
- 0.53216 2 0 tcp 1040 ------- 2 2.0 0.0 37 140
r 0.53368 1 3 tcp 1040 ------- 1 1.0 3.0 47 124
+ 0.53368 3 1 ack 40 ------- 1 3.0 1.0 47 202
- 0.53368 3 1 ack 40 ------- 1 3.0 1.0 47 202
r 0.53384 2 0 tcp 1040 ------- 2 2.0 0.0 35 135
+ 0.53384 0 2 ack 40 ------- 2 0.0 2.0 35 203
- 0.53384 0 2 ack 40 ------- 2 0.0 2.0 35 203
r 0.53568 3 1 ack 40 ------- 1 3.0 1.0 46 198
+ 0.53568 1 3 tcp 1040 ------- 1 1.0 3.0 66 204
r 0.53584 0 2 ack 40 ------- 2 0.0 2.0 34 199
+ 0.53584 2 0 tcp 1040 ------- 2 2.0 0.0 54 205
- 0.54032 1 3 tcp 1040 ------- 1 1.0 3.0 50 139
- 0.54048 2 0 tcp 1040 ------- 2 2.0 0.0 38 141
r 0.542 1 3 tcp 1040 ------- 1 1.0 3.0 48 129
+ 0.542 3 1 ack 40 ------- 1 3.0 1.0 48 206
- 0.542 3 1 ack 40 ------- 1 3.0 1.0 48 206
r 0.54216 2 0 tcp 1040 ------- 2 2.0 0.0 36 136
+ 0.54216 0 2 ack 40 ------- 2 0.0 2.0 36 207
- 0.54216 0 2 ack 40 ------- 2 0.0 2.0 36 207
r 0.544 3 1 ack 40 ------- 1 3.0 1.0 47 202
+ 0.544 1 3 tcp 1040 ------- 1 1.0 3.0 67 208
r 0.54416 0 2 ack 40 ------- 2 0.0 2.0 35 203
+ 0.54416 2 0 tcp 1040 ------- 2 2.0 0.0 55 209
- 0.54864 1 3 tcp 1040 ------- 1 1.0 3.0 51 144
- 0.5488 2 0 tcp 1040 ------- 2 2.0 0.0 39 145
r 0.55032 1 3 tcp 1040 ------- 1 1.0 3.0 49 134
+ 0.55032 3 1 ack 40 ------- 1 3.0 1.0 49 210
- 0.55032 3 1 ack 40 ------- 1 3.0 1.0 49 210
r 0.55048 2 0 tcp 1040 ------- 2 2.0 0.0 37 140
+ 0.55048 0 2 ack 40 ------- 2 0.0 2.0 37 211
- 0.55048 0 2 ack 40 ------- 2 0.0 2.0 37 211
r 0.55232 3 1 ack 40 ------- 1 3.0 1.0 48 206
+ 0.55232 1 3 tcp 1040 ------- 1 1.0 3.0 68 212
r 0.55248 0 2 ack 40 ------- 2 0.0 2.0 36 207
+ 0.55248 2 0 tcp 1040 ------- 2 2.0 0.0 56 213
- 0.55696 1 3 tcp 1040 ------- 1 1.0 3.0 52 148
- 0.55712 2 0 tcp 1040 ------- 2 2.0 0.0 40 149
r 0.55864 1 3 tcp 1040 ------- 1 1.0 3.0 50 139
+ 0.55864 3 1 ack 40 ------- 1 3.0 1.0 50 214
- 0.55864 3 1 ack 40 ------- 1 3.0 1.0 50 214
r 0.5588 2 0 tcp 1040 ------- 2 2.0 0.0 38 141
+ 0.5588 0 2 ack 40 ------- 2 0.0 2.0 38 215
- 0.5588 0 2 ack 40 ------- 2 0.0 2.0 38 215
r 0.56064 3 1 ack 40 ------- 1 3.0 1.0 49 210
+ 0.56064 1 3 tcp 1040 ------- 1 1.0 3.0 69 216
r 0.5608 0 2 ack 40 ------- 2 0.0 2.0 37 211
+ 0.5608 2 0 tcp 1040 ------- 2 2.0 0.0 57 217
- 0.56528 1 3 tcp 1040 ------- 1 1.0 3.0 53 152
- 0.56544 2 0 tcp 1040 ------- 2 2.0 0.0 41 153
r 0.56696 1 3 tcp 1040 ------- 1 1.0 3.0 51 144
+ 0.56696 3 1 ack 40 ------- 1 3.0 1.0 51 218
- 0.56696 3 1 ack 40 ------- 1 3.0 1.0 51 218
r 0.56712 2 0 tcp 1040 ------- 2 2.0 0.0 39 145
+ 0.56712 0 2 ack 40 ------- 2 0.0 2.0 39 219
- 0.56712 0 2 ack 40 ------- 2 0.0 2.0 39 219
r 0.56896 3 1 ack 40 ------- 1 3.0 1.0 50 214
+ 0.56896 1 3 tcp 1040 ------- 1 1.0 3.0 70 220
r 0.56912 0 2 ack 40 ------- 2 0.0 2.0 38 215
+ 0.56912 2 0 tcp 1040 ------- 2 2.0 0.0 58 221
- 0.5736 1 3 tcp 1040 ------- 1 1.0 3.0 54 156
- 0.57376 2 0 tcp 1040 ------- 2 2.0 0.0 42 157
r 0.57528 1 3 tcp 1040 ------- 1 1.0 3.0 52 148
+ 0.57528 3 1 ack 40 ------- 1 3.0 1.0 52 222
- 0.57528 3 1 ack 40 ------- 1 3.0 1.0 52 222
r 0.57544 2 0 tcp 1040 ------- 2 2.0 0.0 40 149
+ 0.57544 0 2 ack 40 ------- 2 0.0 2.0 40 223
- 0.57544 0 2 ack 40 ------- 2 0.0 2.0 40 223
r 0.57728 3 1 ack 40 ------- 1 3.0 1.0 51 218
+ 0.57728 1 3 tcp 1040 ------- 1 1.0 3.0 71 224
r 0.57744 0 2 ack 40 ------- 2 0.0 2.0 39 219
+ 0.57744 2 0 tcp 1040 ------- 2 2.0 0.0 59 225
- 0.58192 1 3 tcp 1040 ------- 1 1.0 3.0 55 160
- 0.58208 2 0 tcp 1040 ------- 2 2.0 0.0 43 161
r 0.5836 1 3 tcp 1040 ------- 1 1.0 3.0 53 152
+ 0.5836 3 1 ack 40 ------- 1 3.0 1.0 53 226
- 0.5836 3 1 ack 40 ------- 1 3.0 1.0 53 226
r 0.58376 2 0 tcp 1040 ------- 2 2.0 0.0 41 153
+ 0.58376 0 2 ack 40 ------- 2 0.0 2.0 41 227
- 0.58376 0 2 ack 40 ------- 2 0.0 2.0 41 227
r 0.5856 3 1 ack 40 ------- 1 3.0 1.0 52 222
+ 0.5856 1 3 tcp 1040 ------- 1 1.0 3.0 72 228
r 0.58576 0 2 ack 40 ------- 2 0.0 2.0 40 223
+ 0.58576 2 0 tcp 1040 ------- 2 2.0 0.0 60 229
- 0.59024 1 3 tcp 1040 ------- 1 1.0 3.0 56 164
- 0.5904 2 0 tcp 1040 ------- 2 2.0 0.0 44 165
r 0.59192 1 3 tcp 1040 ------- 1 1.0 3.0 54 156
+ 0.59192 3 1 ack 40 ------- 1 3.0 1.0 54 230
- 0.59192 3 1 ack 40 ------- 1 3.0 1.0 54 230
r 0.59208 2 0 tcp 1040 ------- 2 2.0 0.0 42 157
+ 0.59208 0 2 ack 40 ------- 2 0.0 2.0 42 231
- 0.59208 0 2 ack 40 ------- 2 0.0 2.0 42 231
r 0.59392 3 1 ack 40 ------- 1 3.0 1.0 53 226
+ 0.59392 1 3 tcp 1040 ------- 1 1.0 3.0 73 232
r 0.59408 0 2 ack 40 ------- 2 0.0 2.0 41 227
+ 0.59408 2 0 tcp 1040 ------- 2 2.0 0.0 61 233
- 0.59856 1 3 tcp 1040 ------- 1 1.0 3.0 57 168
- 0.59872 2 0 tcp 1040 ------- 2 2.0 0.0 45 169
r 0.60024 1 3 tcp 1040 ------- 1 1.0 3.0 55 160
+ 0.60024 3 1 ack 40 ------- 1 3.0 1.0 55 234
- 0.60024 3 1 ack 40 ------- 1 3.0 1.0 55 234
r 0.6004 2 0 tcp 1040 ------- 2 2.0 0.0 43 161
+ 0.6004 0 2 ack 40 ------- 2 0.0 2.0 43 235
- 0.6004 0 2 ack 40 ------- 2 0.0 2.0 43 235
r 0.60224 3 1 ack 40 ------- 1 3.0 1.0 54 230
+ 0.60224 1 3 tcp 1040 ------- 1 1.0 3.0 74 236
r 0.6024 0 2 ack 40 ------- 2 0.0 2.0 42 231
+ 0.6024 2 0 tcp 1040 ------- 2 2.0 0.0 62 237
- 0.60688 1 3 tcp 1040 ------- 1 1.0 3.0 58 172
- 0.60704 2 0 tcp 1040 ------- 2 2.0 0.0 46 173
r 0.60856 1 3 tcp 1040 ------- 1 1.0 3.0 56 164
+ 0.60856 3 1 ack 40 ------- 1 3.0 1.0 56 238
- 0.60856 3 1 ack 40 ------- 1 3.0 1.0 56 238
r 0.60872 2 0 tcp 1040 ------- 2 2.0 0.0 44 165
+ 0.60872 0 2 ack 40 ------- 2 0.0 2.0 44 239
- 0.60872 0 2 ack 40 ------- 2 0.0 2.0 44 239
r 0.61056 3 1 ack 40 ------- 1 3.0 1.0 55 234
+ 0.61056 1 3 tcp 1040 ------- 1 1.0 3.0 75 240