V -t * -v 1.0a5 -a 0
A -t * -n 1 -p 0 -o 0x7fffffff -c 30 -a 1
A -t * -h 1 -m 1073741823 -s 0
c -t * -i 1 -n Purple
c -t * -i 2 -n Yellow
n -t * -a 4 -s 4 -S UP -v circle -c black -i black
n -t * -a 0 -s 0 -S UP -v circle -c black -i black
n -t * -a 5 -s 5 -S UP -v circle -c black -i black
n -t * -a 1 -s 1 -S UP -v circle -c black -i black
n -t * -a 2 -s 2 -S UP -v circle -c black -i black
n -t * -a 3 -s 3 -S UP -v circle -c black -i black
l -t * -s 0 -d 2 -S UP -r 10000000 -D 0.01 -c black -o right-down
l -t * -s 1 -d 2 -S UP -r 10000000 -D 0.01 -c black -o right-up
l -t * -s 2 -d 3 -S UP -r 10000000 -D 0.01 -c black -o right
l -t * -s 3 -d 4 -S UP -r 10000000 -D 0.01 -c black -o right-up
l -t * -s 3 -d 5 -S UP -r 10000000 -D 0.01 -c black -o right-down
+ -t 1 -s 0 -d 2 -p cbr -e 1000 -c 1 -i 0 -a 1 -x {0.0 4.0 0 ------- null}
- -t 1 -s 0 -d 2 -p cbr -e 1000 -c 1 -i 0 -a 1 -x {0.0 4.0 0 ------- null}
h -t 1 -s 0 -d 2 -p cbr -e 1000 -c 1 -i 0 -a 1 -x {0.0 4.0 -1 ------- null}
+ -t 1 -s 1 -d 2 -p tcp -e 40 -c 1 -i 1 -a 1 -x {1.0 5.0 0 ------- null}
- -t 1 -s 1 -d 2 -p tcp -e 40 -c 1 -i 1 -a 1 -x {1.0 5.0 0 ------- null}
h -t 1 -s 1 -d 2 -p tcp -e 40 -c 1 -i 1 -a 1 -x {1.0 5.0 -1 ------- null}
+ -t 1.008 -s 0 -d 2 -p cbr -e 1000 -c 1 -i 2 -a 1 -x {0.0 4.0 1 ------- null}
- -t 1.008 -s 0 -d 2 -p cbr -e 1000 -c 1 -i 2 -a 1 -x {0.0 4.0 1 ------- null}
h -t 1.008 -s 0 -d 2 -p cbr -e 1000 -c 1 -i 2 -a 1 -x {0.0 4.0 -1 ------- null}
r -t 1.010032 -s 1 -d 2 -p tcp -e 40 -c 1 -i 1 -a 1 -x {1.0 5.0 0 ------- null}
+ -t 1.010032 -s 2 -d 3 -p tcp -e 40 -c 1 -i 1 -a 1 -x {1.0 5.0 0 ------- null}
- -t 1.010032 -s 2 -d 3 -p tcp -e 40 -c 1 -i 1 -a 1 -x {1.0 5.0 0 ------- null}
h -t 1.010032 -s 2 -d 3 -p tcp -e 40 -c 1 -i 1 -a 1 -x {1.0 5.0 -1 ------- null}
r -t 1.0108 -s 0 -d 2 -p cbr -e 1000 -c 1 -i 0 -a 1 -x {0.0 4.0 0 ------- null}
+ -t 1.0108 -s 2 -d 3 -p cbr -e 1000 -c 1 -i 0 -a 1 -x {0.0 4.0 0 ------- null}
- -t 1.0108 -s 2 -d 3 -p cbr -e 1000 -c 1 -i 0 -a 1 -x {0.0 4.0 0 ------- null}
h -t 1.0108 -s 2 -d 3 -p cbr -e 1000 -c 1 -i 0 -a 1 -x {0.0 4.0 -1 ------- null}
+ -t 1.016 -s 0 -d 2 -p cbr -e 1000 -c 1 -i 3 -a 1 -x {0.0 4.0 2 ------- null}
- -t 1.016 -s 0 -d 2 -p cbr -e 1000 -c 1 -i 3 -a 1 -x {0.0 4.0 2 ------- null}
h -t 1.016 -s 0 -d 2 -p cbr -e 1000 -c 1 -i 3 -a 1 -x {0.0 4.0 -1 ------- null}
r -t 1.0188 -s 0 -d 2 -p cbr -e 1000 -c 1 -i 2 -a 1 -x {0.0 4.0 1 ------- null}
+ -t 1.0188 -s 2 -d 3 -p cbr -e 1000 -c 1 -i 2 -a 1 -x {0.0 4.0 1 ------- null}
- -t 1.0188 -s 2 -d 3 -p cbr -e 1000 -c 1 -i 2 -a 1 -x {0.0 4.0 1 ------- null}
h -t 1.0188 -s 2 -d 3 -p cbr -e 1000 -c 1 -i 2 -a 1 -x {0.0 4.0 -1 ------- null}
r -t 1.020064 -s 2 -d 3 -p tcp -e 40 -c 1 -i 1 -a 1 -x {1.0 5.0 0 ------- null}
+ -t 1.020064 -s 3 -d 5 -p tcp -e 40 -c 1 -i 1 -a 1 -x {1.0 5.0 0 ------- null}
- -t 1.020064 -s 3 -d 5 -p tcp -e 40 -c 1 -i 1 -a 1 -x {1.0 5.0 0 ------- null}
h -t 1.020064 -s 3 -d 5 -p tcp -e 40 -c 1 -i 1 -a 1 -x {1.0 5.0 -1 ------- null}
r -t 1.0216 -s 2 -d 3 -p cbr -e 1000 -c 1 -i 0 -a 1 -x {0.0 4.0 0 ------- null}
+ -t 1.0216 -s 3 -d 4 -p cbr -e 1000 -c 1 -i 0 -a 1 -x {0.0 4.0 0 ------- null}
- -t 1.0216 -s 3 -d 4 -p cbr -e 1000 -c 1 -i 0 -a 1 -x {0.0 4.0 0 ------- null}
h -t 1.0216 -s 3 -d 4 -p cbr -e 1000 -c 1 -i 0 -a 1 -x {0.0 4.0 -1 ------- null}
+ -t 1.024 -s 0 -d 2 -p cbr -e 1000 -c 1 -i 4 -a 1 -x {0.0 4.0 3 ------- null}
- -t 1.024 -s 0 -d 2 -p cbr -e 1000 -c 1 -i 4 -a 1 -x {0.0 4.0 3 ------- null}
h -t 1.024 -s 0 -d 2 -p cbr -e 1000 -c 1 -i 4 -a 1 -x {0.0 4.0 -1 ------- null}
r -t 1.0268 -s 0 -d 2 -p cbr -e 1000 -c 1 -i 3 -a 1 -x {0.0 4.0 2 ------- null}
+ -t 1.0268 -s 2 -d 3 -p cbr -e 1000 -c 1 -i 3 -a 1 -x {0.0 4.0 2 ------- null}
- -t 1.0268 -s 2 -d 3 -p cbr -e 1000 -c 1 -i 3 -a 1 -x {0.0 4.0 2 ------- null}
h -t 1.0268 -s 2 -d 3 -p cbr -e 1000 -c 1 -i 3 -a 1 -x {0.0 4.0 -1 ------- null}
r -t 1.0296 -s 2 -d 3 -p cbr -e 1000 -c 1 -i 2 -a 1 -x {0.0 4.0 1 ------- null}
+ -t 1.0296 -s 3 -d 4 -p cbr -e 1000 -c 1 -i 2 -a 1 -x {0.0 4.0 1 ------- null}
- -t 1.0296 -s 3 -d 4 -p cbr -e 1000 -c 1 -i 2 -a 1 -x {0.0 4.0 1 ------- null}
h -t 1.0296 -s 3 -d 4 -p cbr -e 1000 -c 1 -i 2 -a 1 -x {0.0 4.0 -1 ------- null}
r -t 1.030096 -s 3 -d 5 -p tcp -e 40 -c 1 -i 1 -a 1 -x {1.0 5.0 0 ------- null}
+ -t 1.030096 -s 5 -d 3 -p ack -e 40 -c 1 -i 5 -a 1 -x {5.0 1.0 0 ------- null}
- -t 1.030096 -s 5 -d 3 -p ack -e 40 -c 1 -i 5 -a 1 -x {5.0 1.0 0 ------- null}
h -t 1.030096 -s 5 -d 3 -p ack -e 40 -c 1 -i 5 -a 1 -x {5.0 1.0 -1 ------- null}
+ -t 1.032 -s 0 -d 2 -p cbr -e 1000 -c 1 -i 6 -a 1 -x {0.0 4.0 4 ------- null}
- -t 1.032 -s 0 -d 2 -p cbr -e 1000 -c 1 -i 6 -a 1 -x {0.0 4.0 4 ------- null}
h -t 1.032 -s 0 -d 2 -p cbr -e 1000 -c 1 -i 6 -a 1 -x {0.0 4.0 -1 ------- null}
r -t 1.0324 -s 3 -d 4 -p cbr -e 1000 -c 1 -i 0 -a 1 -x {0.0 4.0 0 ------- null}
r -t 1.0348 -s 0 -d 2 -p cbr -e 1000 -c 1 -i 4 -a 1 -x {0.0 4.0 3 ------- null}
+ -t 1.0348 -s 2 -d 3 -p cbr -e 1000 -c 1 -i 4 -a 1 -x {0.0 4.0 3 ------- null}
- -t 1.0348 -s 2 -d 3 -p cbr -e 1000 -c 1 -i 4 -a 1 -x {0.0 4.0 3 ------- null}
h -t 1.0348 -s 2 -d 3 -p cbr -e 1000 -c 1 -i 4 -a 1 -x {0.0 4.0 -1 ------- null}
r -t 1.0376 -s 2 -d 3 -p cbr -e 1000 -c 1 -i 3 -a 1 -x {0.0 4.0 2 ------- null}
+ -t 1.0376 -s 3 -d 4 -p cbr -e 1000 -c 1 -i 3 -a 1 -x {0.0 4.0 2 ------- null}
- -t 1.0376 -s 3 -d 4 -p cbr -e 1000 -c 1 -i 3 -a 1 -x {0.0 4.0 2 ------- null}
h -t 1.0376 -s 3 -d 4 -p cbr -e 1000 -c 1 -i 3 -a 1 -x {0.0 4.0 -1 ------- null}
+ -t 1.04 -s 0 -d 2 -p cbr -e 1000 -c 1 -i 7 -a 1 -x {0.0 4.0 5 ------- null}
- -t 1.04 -s 0 -d 2 -p cbr -e 1000 -c 1 -i 7 -a 1 -x {0.0 4.0 5 ------- null}
h -t 1.04 -s 0 -d 2 -p cbr -e 1000 -c 1 -i 7 -a 1 -x {0.0 4.0 -1 ------- null}
r -t 1.040128 -s 5 -d 3 -p ack -e 40 -c 1 -i 5 -a 1 -x {5.0 1.0 0 ------- null}
+ -t 1.040128 -s 3 -d 2 -p ack -e 40 -c 1 -i 5 -a 1 -x {5.0 1.0 0 ------- null}
- -t 1.040128 -s 3 -d 2 -p ack -e 40 -c 1 -i 5 -a 1 -x {5.0 1.0 0 ------- null}
h -t 1.040128 -s 3 -d 2 -p ack -e 40 -c 1 -i 5 -a 1 -x {5.0 1.0 -1 ------- null}
r -t 1.0404 -s 3 -d 4 -p cbr -e 1000 -c 1 -i 2 -a 1 -x {0.0 4.0 1 ------- null}
r -t 1.0428 -s 0 -d 2 -p cbr -e 1000 -c 1 -i 6 -a 1 -x {0.0 4.0 4 ------- null}
+ -t 1.0428 -s 2 -d 3 -p cbr -e 1000 -c 1 -i 6 -a 1 -x {0.0 4.0 4 ------- null}
- -t 1.0428 -s 2 -d 3 -p cbr -e 1000 -c 1 -i 6 -a 1 -x {0.0 4.0 4 ------- null}
h -t 1.0428 -s 2 -d 3 -p cbr -e 1000 -c 1 -i 6 -a 1 -x {0.0 4.0 -1 ------- null}
r -t 1.0456 -s 2 -d 3 -p cbr -e 1000 -c 1 -i 4 -a 1 -x {0.0 4.0 3 ------- null}
+ -t 1.0456 -s 3 -d 4 -p cbr -e 1000 -c 1 -i 4 -a 1 -x {0.0 4.0 3 ------- null}
- -t 1.0456 -s 3 -d 4 -p cbr -e 1000 -c 1 -i 4 -a 1 -x {0.0 4.0 3 ------- null}
h -t 1.0456 -s 3 -d 4 -p cbr -e 1000 -c 1 -i 4 -a 1 -x {0.0 4.0 -1 ------- null}
+ -t 1.048 -s 0 -d 2 -p cbr -e 1000 -c 1 -i 8 -a 1 -x {0.0 4.0 6 ------- null}
- -t 1.048 -s 0 -d 2 -p cbr -e 1000 -c 1 -i 8 -a 1 -x {0.0 4.0 6 ------- null}
h -t 1.048 -s 0 -d 2 -p cbr -e 1000 -c 1 -i 8 -a 1 -x {0.0 4.0 -1 ------- null}
r -t 1.0484 -s 3 -d 4 -p cbr -e 1000 -c 1 -i 3 -a 1 -x {0.0 4.0 2 ------- null}
r -t 1.05016 -s 3 -d 2 -p ack -e 40 -c 1 -i 5 -a 1 -x {5.0 1.0 0 ------- null}
+ -t 1.05016 -s 2 -d 1 -p ack -e 40 -c 1 -i 5 -a 1 -x {5.0 1.0 0 ------- null}
- -t 1.05016 -s 2 -d 1 -p ack -e 40 -c 1 -i 5 -a 1 -x {5.0 1.0 0 ------- null}
h -t 1.05016 -s 2 -d 1 -p ack -e 40 -c 1 -i 5 -a 1 -x {5.0 1.0 -1 ------- null}
r -t 1.0508 -s 0 -d 2 -p cbr -e 1000 -c 1 -i 7 -a 1 -x {0.0 4.0 5 ------- null}
+ -t 1.0508 -s 2 -d 3 -p cbr -e 1000 -c 1 -i 7 -a 1 -x {0.0 4.0 5 ------- null}
- -t 1.0508 -s 2 -d 3 -p cbr -e 1000 -c 1 -i 7 -a 1 -x {0.0 4.0 5 ------- null}
h -t 1.0508 -s 2 -d 3 -p cbr -e 1000 -c 1 -i 7 -a 1 -x {0.0 4.0 -1 ------- null}
r -t 1.0536 -s 2 -d 3 -p cbr -e 1000 -c 1 -i 6 -a 1 -x {0.0 4.0 4 ------- null}
+ -t 1.0536 -s 3 -d 4 -p cbr -e 1000 -c 1 -i 6 -a 1 -x {0.0 4.0 4 ------- null}
- -t 1.0536 -s 3 -d 4 -p cbr -e 1000 -c 1 -i 6 -a 1 -x {0.0 4.0 4 ------- null}
h -t 1.0536 -s 3 -d 4 -p cbr -e 1000 -c 1 -i 6 -a 1 -x {0.0 4.0 -1 ------- null}
+ -t 1.056 -s 0 -d 2 -p cbr -e 1000 -c 1 -i 9 -a 1 -x {0.0 4.0 7 ------- null}
- -t 1.056 -s 0 -d 2 -p cbr -e 1000 -c 1 -i 9 -a 1 -x {0.0 4.0 7 ------- null}
h -t 1.056 -s 0 -d 2 -p cbr -e 1000 -c 1 -i 9 -a 1 -x {0.0 4.0 -1 ------- null}
r -t 1.0564 -s 3 -d 4 -p cbr -e 1000 -c 1 -i 4 -a 1 -x {0.0 4.0 3 ------- null}
r -t 1.0588 -s 0 -d 2 -p cbr -e 1000 -c 1 -i 8 -a 1 -x {0.0 4.0 6 ------- null}
+ -t 1.0588 -s 2 -d 3 -p cbr -e 1000 -c 1 -i 8 -a 1 -x {0.0 4.0 6 ------- null}
- -t 1.0588 -s 2 -d 3 -p cbr -e 1000 -c 1 -i 8 -a 1 -x {0.0 4.0 6 ------- null}
h -t 1.0588 -s 2 -d 3 -p cbr -e 1000 -c 1 -i 8 -a 1 -x {0.0 4.0 -1 ------- null}
r -t 1.060192 -s 2 -d 1 -p ack -e 40 -c 1 -i 5 -a 1 -x {5.0 1.0 0 ------- null}
+ -t 1.060192 -s 1 -d 2 -p tcp -e 1540 -c 1 -i 10 -a 1 -x {1.0 5.0 1 ------- null}
- -t 1.060192 -s 1 -d 2 -p tcp -e 1540 -c 1 -i 10 -a 1 -x {1.0 5.0 1 ------- null}
h -t 1.060192 -s 1 -d 2 -p tcp -e 1540 -c 1 -i 10 -a 1 -x {1.0 5.0 -1 ------- null}
+ -t 1.060192 -s 1 -d 2 -p tcp -e 1540 -c 1 -i 11 -a 1 -x {1.0 5.0 2 ------- null}
- -t 1.061424 -s 1 -d 2 -p tcp -e 1540 -c 1 -i 11 -a 1 -x {1.0 5.0 2 ------- null}
h -t 1.061424 -s 1 -d 2 -p tcp -e 1540 -c 1 -i 11 -a 1 -x {1.0 5.0 -1 ------- null}
r -t 1.0616 -s 2 -d 3 -p cbr -e 1000 -c 1 -i 7 -a 1 -x {0.0 4.0 5 ------- null}
+ -t 1.0616 -s 3 -d 4 -p cbr -e 1000 -c 1 -i 7 -a 1 -x {0.0 4.0 5 ------- null}
- -t 1.0616 -s 3 -d 4 -p cbr -e 1000 -c 1 -i 7 -a 1 -x {0.0 4.0 5 ------- null}
h -t 1.0616 -s 3 -d 4 -p cbr -e 1000 -c 1 -i 7 -a 1 -x {0.0 4.0 -1 ------- null}
+ -t 1.064 -s 0 -d 2 -p cbr -e 1000 -c 1 -i 12 -a 1 -x {0.0 4.0 8 ------- null}
- -t 1.064 -s 0 -d 2 -p cbr -e 1000 -c 1 -i 12 -a 1 -x {0.0 4.0 8 ------- null}
h -t 1.064 -s 0 -d 2 -p cbr -e 1000 -c 1 -i 12 -a 1 -x {0.0 4.0 -1 ------- null}
r -t 1.0644 -s 3 -d 4 -p cbr -e 1000 -c 1 -i 6 -a 1 -x {0.0 4.0 4 ------- null}
r -t 1.0668 -s 0 -d 2 -p cbr -e 1000 -c 1 -i 9 -a 1 -x {0.0 4.0 7 ------- null}
+ -t 1.0668 -s 2 -d 3 -p cbr -e 1000 -c 1 -i 9 -a 1 -x {0.0 4.0 7 ------- null}
- -t 1.0668 -s 2 -d 3 -p cbr -e 1000 -c 1 -i 9 -a 1 -x {0.0 4.0 7 ------- null}
h -t 1.0668 -s 2 -d 3 -p cbr -e 1000 -c 1 -i 9 -a 1 -x {0.0 4.0 -1 ------- null}
r -t 1.0696 -s 2 -d 3 -p cbr -e 1000 -c 1 -i 8 -a 1 -x {0.0 4.0 6 ------- null}
+ -t 1.0696 -s 3 -d 4 -p cbr -e 1000 -c 1 -i 8 -a 1 -x {0.0 4.0 6 ------- null}
- -t 1.0696 -s 3 -d 4 -p cbr -e 1000 -c 1 -i 8 -a 1 -x {0.0 4.0 6 ------- null}
h -t 1.0696 -s 3 -d 4 -p cbr -e 1000 -c 1 -i 8 -a 1 -x {0.0 4.0 -1 ------- null}
r -t 1.071424 -s 1 -d 2 -p tcp -e 1540 -c 1 -i 10 -a 1 -x {1.0 5.0 1 ------- null}
+ -t 1.071424 -s 2 -d 3 -p tcp -e 1540 -c 1 -i 10 -a 1 -x {1.0 5.0 1 ------- null}
- -t 1.071424 -s 2 -d 3 -p tcp -e 1540 -c 1 -i 10 -a 1 -x {1.0 5.0 1 ------- null}
h -t 1.071424 -s 2 -d 3 -p tcp -e 1540 -c 1 -i 10 -a 1 -x {1.0 5.0 -1 ------- null}
+ -t 1.072 -s 0 -d 2 -p cbr -e 1000 -c 1 -i 13 -a 1 -x {0.0 4.0 9 ------- null}
- -t 1.072 -s 0 -d 2 -p cbr -e 1000 -c 1 -i 13 -a 1 -x {0.0 4.0 9 ------- null}
h -t 1.072 -s 0 -d 2 -p cbr -e 1000 -c 1 -i 13 -a 1 -x {0.0 4.0 -1 ------- null}
r -t 1.0724 -s 3 -d 4 -p cbr -e 1000 -c 1 -i 7 -a 1 -x {0.0 4.0 5 ------- null}
r -t 1.072656 -s 1 -d 2 -p tcp -e 1540 -c 1 -i 11 -a 1 -x {1.0 5.0 2 ------- null}
+ -t 1.072656 -s 2 -d 3 -p tcp -e 1540 -c 1 -i 11 -a 1 -x {1.0 5.0 2 ------- null}
- -t 1.072656 -s 2 -d 3 -p tcp -e 1540 -c 1 -i 11 -a 1 -x {1.0 5.0 2 ------- null}
h -t 1.072656 -s 2 -d 3 -p tcp -e 1540 -c 1 -i 11 -a 1 -x {1.0 5.0 -1 ------- null}
r -t 1.0748 -s 0 -d 2 -p cbr -e 1000 -c 1 -i 12 -a 1 -x {0.0 4.0 8 ------- null}
+ -t 1.0748 -s 2 -d 3 -p cbr -e 1000 -c 1 -i 12 -a 1 -x {0.0 4.0 8 ------- null}
- -t 1.0748 -s 2 -d 3 -p cbr -e 1000 -c 1 -i 12 -a 1 -x {0.0 4.0 8 ------- null}
h -t 1.0748 -s 2 -d 3 -p cbr -e 1000 -c 1 -i 12 -a 1 -x {0.0 4.0 -1 ------- null}
r -t 1.0776 -s 2 -d 3 -p cbr -e 1000 -c 1 -i 9 -a 1 -x {0.0 4.0 7 ------- null}
+ -t 1.0776 -s 3 -d 4 -p cbr -e 1000 -c 1 -i 9 -a 1 -x {0.0 4.0 7 ------- null}
- -t 1.0776 -s 3 -d 4 -p cbr -e 1000 -c 1 -i 9 -a 1 -x {0.0 4.0 7 ------- null}
h -t 1.0776 -s 3 -d 4 -p cbr -e 1000 -c 1 -i 9 -a 1 -x {0.0 4.0 -1 ------- null}
+ -t 1.08 -s 0 -d 2 -p cbr -e 1000 -c 1 -i 14 -a 1 -x {0.0 4.0 10 ------- null}
- -t 1.08 -s 0 -d 2 -p cbr -e 1000 -c 1 -i 14 -a 1 -x {0.0 4.0 10 ------- null}
h -t 1.08 -s 0 -d 2 -p cbr -e 1000 -c 1 -i 14 -a 1 -x {0.0 4.0 -1 ------- null}
r -t 1.0804 -s 3 -d 4 -p cbr -e 1000 -c 1 -i 8 -a 1 -x {0.0 4.0 6 ------- null}
r -t 1.082656 -s 2 -d 3 -p tcp -e 1540 -c 1 -i 10 -a 1 -x {1.0 5.0 1 ------- null}
+ -t 1.082656 -s 3 -d 5 -p tcp -e 1540 -c 1 -i 10 -a 1 -x {1.0 5.0 1 ------- null}
- -t 1.082656 -s 3 -d 5 -p tcp -e 1540 -c 1 -i 10 -a 1 -x {1.0 5.0 1 ------- null}
h -t 1.082656 -s 3 -d 5 -p tcp -e 1540 -c 1 -i 10 -a 1 -x {1.0 5.0 -1 ------- null}
r -t 1.0828 -s 0 -d 2 -p cbr -e 1000 -c 1 -i 13 -a 1 -x {0.0 4.0 9 ------- null}
+ -t 1.0828 -s 2 -d 3 -p cbr -e 1000 -c 1 -i 13 -a 1 -x {0.0 4.0 9 ------- null}
- -t 1.0828 -s 2 -d 3 -p cbr -e 1000 -c 1 -i 13 -a 1 -x {0.0 4.0 9 ------- null}
h -t 1.0828 -s 2 -d 3 -p cbr -e 1000 -c 1 -i 13 -a 1 -x {0.0 4.0 -1 ------- null}
r -t 1.083888 -s 2 -d 3 -p tcp -e 1540 -c 1 -i 11 -a 1 -x {1.0 5.0 2 ------- null}
+ -t 1.083888 -s 3 -d 5 -p tcp -e 1540 -c 1 -i 11 -a 1 -x {1.0 5.0 2 ------- null}
- -t 1.083888 -s 3 -d 5 -p tcp -e 1540 -c 1 -i 11 -a 1 -x {1.0 5.0 2 ------- null}
h -t 1.083888 -s 3 -d 5 -p tcp -e 1540 -c 1 -i 11 -a 1 -x {1.0 5.0 -1 ------- null}
r -t 1.0856 -s 2 -d 3 -p cbr -e 1000 -c 1 -i 12 -a 1 -x {0.0 4.0 8 ------- null}
+ -t 1.0856 -s 3 -d 4 -p cbr -e 1000 -c 1 -i 12 -a 1 -x {0.0 4.0 8 ------- null}
- -t 1.0856 -s 3 -d 4 -p cbr -e 1000 -c 1 -i 12 -a 1 -x {0.0 4.0 8 ------- null}
h -t 1.0856 -s 3 -d 4 -p cbr -e 1000 -c 1 -i 12 -a 1 -x {0.0 4.0 -1 ------- null}
+ -t 1.088 -s 0 -d 2 -p cbr -e 1000 -c 1 -i 15 -a 1 -x {0.0 4.0 11 ------- null}
- -t 1.088 -s 0 -d 2 -p cbr -e 1000 -c 1 -i 15 -a 1 -x {0.0 4.0 11 ------- null}
h -t 1.088 -s 0 -d 2 -p cbr -e 1000 -c 1 -i 15 -a 1 -x {0.0 4.0 -1 ------- null}
r -t 1.0884 -s 3 -d 4 -p cbr -e 1000 -c 1 -i 9 -a 1 -x {0.0 4.0 7 ------- null}
r -t 1.0908 -s 0 -d 2 -p cbr -e 1000 -c 1 -i 14 -a 1 -x {0.0 4.0 10 ------- null}
+ -t 1.0908 -s 2 -d 3 -p cbr -e 1000 -c 1 -i 14 -a 1 -x {0.0 4.0 10 ------- null}
- -t 1.0908 -s 2 -d 3 -p cbr -e 1000 -c 1 -i 14 -a 1 -x {0.0 4.0 10 ------- null}
h -t 1.0908 -s 2 -d 3 -p cbr -e 1000 -c 1 -i 14 -a 1 -x {0.0 4.0 -1 ------- null}
r -t 1.0936 -s 2 -d 3 -p cbr -e 1000 -c 1 -i 13 -a 1 -x {0.0 4.0 9 ------- null}
+ -t 1.0936 -s 3 -d 4 -p cbr -e 1000 -c 1 -i 13 -a 1 -x {0.0 4.0 9 ------- null}
- -t 1.0936 -s 3 -d 4 -p cbr -e 1000 -c 1 -i 13 -a 1 -x {0.0 4.0 9 ------- null}
h -t 1.0936 -s 3 -d 4 -p cbr -e 1000 -c 1 -i 13 -a 1 -x {0.0 4.0 -1 ------- null}
r -t 1.093888 -s 3 -d 5 -p tcp -e 1540 -c 1 -i 10 -a 1 -x {1.0 5.0 1 ------- null}
+ -t 1.093888 -s 5 -d 3 -p ack -e 40 -c 1 -i 16 -a 1 -x {5.0 1.0 1 ------- null}
- -t 1.093888 -s 5 -d 3 -p ack -e 40 -c 1 -i 16 -a 1 -x {5.0 1.0 1 ------- null}
h -t 1.093888 -s 5 -d 3 -p ack -e 40 -c 1 -i 16 -a 1 -x {5.0 1.0 -1 ------- null}
r -t 1.09512 -s 3 -d 5 -p tcp -e 1540 -c 1 -i 11 -a 1 -x {1.0 5.0 2 ------- null}
+ -t 1.09512 -s 5 -d 3 -p ack -e 40 -c 1 -i 17 -a 1 -x {5.0 1.0 2 ------- null}
- -t 1.09512 -s 5 -d 3 -p ack -e 40 -c 1 -i 17 -a 1 -x {5.0 1.0 2 ------- null}
h -t 1.09512 -s 5 -d 3 -p ack -e 40 -c 1 -i 17 -a 1 -x {5.0 1.0 -1 ------- null}
+ -t 1.096 -s 0 -d 2 -p cbr -e 1000 -c 1 -i 18 -a 1 -x {0.0 4.0 12 ------- null}
- -t 1.096 -s 0 -d 2 -p cbr -e 1000 -c 1 -i 18 -a 1 -x {0.0 4.0 12 ------- null}
h -t 1.096 -s 0 -d 2 -p cbr -e 1000 -c 1 -i 18 -a 1 -x {0.0 4.0 -1 ------- null}
r -t 1.0964 -s 3 -d 4 -p cbr -e 1000 -c 1 -i 12 -a 1 -x {0.0 4.0 8 ------- null}
r -t 1.0988 -s 0 -d 2 -p cbr -e 1000 -c 1 -i 15 -a 1 -x {0.0 4.0 11 ------- null}
+ -t 1.0988 -s 2 -d 3 -p cbr -e 1000 -c 1 -i 15 -a 1 -x {0.0 4.0 11 ------- null}
- -t 1.0988 -s 2 -d 3 -p cbr -e 1000 -c 1 -i 15 -a 1 -x {0.0 4.0 11 ------- null}
h -t 1.0988 -s 2 -d 3 -p cbr -e 1000 -c 1 -i 15 -a 1 -x {0.0 4.0 -1 ------- null}
r -t 1.1016 -s 2 -d 3 -p cbr -e 1000 -c 1 -i 14 -a 1 -x {0.0 4.0 10 ------- null}
+ -t 1.1016 -s 3 -d 4 -p cbr -e 1000 -c 1 -i 14 -a 1 -x {0.0 4.0 10 ------- null}
- -t 1.1016 -s 3 -d 4 -p cbr -e 1000 -c 1 -i 14 -a 1 -x {0.0 4.0 10 ------- null}
h -t 1.1016 -s 3 -d 4 -p cbr -e 1000 -c 1 -i 14 -a 1 -x {0.0 4.0 -1 ------- null}
r -t 1.10392 -s 5 -d 3 -p ack -e 40 -c 1 -i 16 -a 1 -x {5.0 1.0 1 ------- null}
+ -t 1.10392 -s 3 -d 2 -p ack -e 40 -c 1 -i 16 -a 1 -x {5.0 1.0 1 ------- null}
- -t 1.10392 -s 3 -d 2 -p ack -e 40 -c 1 -i 16 -a 1 -x {5.0 1.0 1 ------- null}
h -t 1.10392 -s 3 -d 2 -p ack -e 40 -c 1 -i 16 -a 1 -x {5.0 1.0 -1 ------- null}
+ -t 1.104 -s 0 -d 2 -p cbr -e 1000 -c 1 -i 19 -a 1 -x {0.0 4.0 13 ------- null}
- -t 1.104 -s 0 -d 2 -p cbr -e 1000 -c 1 -i 19 -a 1 -x {0.0 4.0 13 ------- null}
h -t 1.104 -s 0 -d 2 -p cbr -e 1000 -c 1 -i 19 -a 1 -x {0.0 4.0 -1 ------- null}
r -t 1.1044 -s 3 -d 4 -p cbr -e 1000 -c 1 -i 13 -a 1 -x {0.0 4.0 9 ------- null}
r -t 1.105152 -s 5 -d 3 -p ack -e 40 -c 1 -i 17 -a 1 -x {5.0 1.0 2 ------- null}
+ -t 1.105152 -s 3 -d 2 -p ack -e 40 -c 1 -i 17 -a 1 -x {5.0 1.0 2 ------- null}
- -t 1.105152 -s 3 -d 2 -p ack -e 40 -c 1 -i 17 -a 1 -x {5.0 1.0 2 ------- null}
h -t 1.105152 -s 3 -d 2 -p ack -e 40 -c 1 -i 17 -a 1 -x {5.0 1.0 -1 ------- null}
r -t 1.1068 -s 0 -d 2 -p cbr -e 1000 -c 1 -i 18 -a 1 -x {0.0 4.0 12 ------- null}
+ -t 1.1068 -s 2 -d 3 -p cbr -e 1000 -c 1 -i 18 -a 1 -x {0.0 4.0 12 ------- null}
- -t 1.1068 -s 2 -d 3 -p cbr -e 1000 -c 1 -i 18 -a 1 -x {0.0 4.0 12 ------- null}
h -t 1.1068 -s 2 -d 3 -p cbr -e 1000 -c 1 -i 18 -a 1 -x {0.0 4.0 -1 ------- null}
r -t 1.1096 -s 2 -d 3 -p cbr -e 1000 -c 1 -i 15 -a 1 -x {0.0 4.0 11 ------- null}
+ -t 1.1096 -s 3 -d 4 -p cbr -e 1000 -c 1 -i 15 -a 1 -x {0.0 4.0 11 ------- null}
- -t 1.1096 -s 3 -d 4 -p cbr -e 1000 -c 1 -i 15 -a 1 -x {0.0 4.0 11 ------- null}
h -t 1.1096 -s 3 -d 4 -p cbr -e 1000 -c 1 -i 15 -a 1 -x {0.0 4.0 -1 ------- null}
+ -t 1.112 -s 0 -d 2 -p cbr -e 1000 -c 1 -i 20 -a 1 -x {0.0 4.0 14 ------- null}
- -t 1.112 -s 0 -d 2 -p cbr -e 1000 -c 1 -i 20 -a 1 -x {0.0 4.0 14 ------- null}
h -t 1.112 -s 0 -d 2 -p cbr -e 1000 -c 1 -i 20 -a 1 -x {0.0 4.0 -1 ------- null}
r -t 1.1124 -s 3 -d 4 -p cbr -e 1000 -c 1 -i 14 -a 1 -x {0.0 4.0 10 ------- null}
r -t 1.113952 -s 3 -d 2 -p ack -e 40 -c 1 -i 16 -a 1 -x {5.0 1.0 1 ------- null}
+ -t 1.113952 -s 2 -d 1 -p ack -e 40 -c 1 -i 16 -a 1 -x {5.0 1.0 1 ------- null}
- -t 1.113952 -s 2 -d 1 -p ack -e 40 -c 1 -i 16 -a 1 -x {5.0 1.0 1 ------- null}
h -t 1.113952 -s 2 -d 1 -p ack -e 40 -c 1 -i 16 -a 1 -x {5.0 1.0 -1 ------- null}
r -t 1.1148 -s 0 -d 2 -p cbr -e 1000 -c 1 -i 19 -a 1 -x {0.0 4.0 13 ------- null}
+ -t 1.1148 -s 2 -d 3 -p cbr -e 1000 -c 1 -i 19 -a 1 -x {0.0 4.0 13 ------- null}
- -t 1.1148 -s 2 -d 3 -p cbr -e 1000 -c 1 -i 19 -a 1 -x {0.0 4.0 13 ------- null}
h -t 1.1148 -s 2 -d 3 -p cbr -e 1000 -c 1 -i 19 -a 1 -x {0.0 4.0 -1 ------- null}
r -t 1.115184 -s 3 -d 2 -p ack -e 40 -c 1 -i 17 -a 1 -x {5.0 1.0 2 ------- null}
+ -t 1.115184 -s 2 -d 1 -p ack -e 40 -c 1 -i 17 -a 1 -x {5.0 1.0 2 ------- null}
- -t 1.115184 -s 2 -d 1 -p ack -e 40 -c 1 -i 17 -a 1 -x {5.0 1.0 2 ------- null}
h -t 1.115184 -s 2 -d 1 -p ack -e 40 -c 1 -i 17 -a 1 -x {5.0 1.0 -1 ------- null}
r -t 1.1176 -s 2 -d 3 -p cbr -e 1000 -c 1 -i 18 -a 1 -x {0.0 4.0 12 ------- null}
+ -t 1.1176 -s 3 -d 4 -p cbr -e 1000 -c 1 -i 18 -a 1 -x {0.0 4.0 12 ------- null}
- -t 1.1176 -s 3 -d 4 -p cbr -e 1000 -c 1 -i 18 -a 1 -x {0.0 4.0 12 ------- null}
h -t 1.1176 -s 3 -d 4 -p cbr -e 1000 -c 1 -i 18 -a 1 -x {0.0 4.0 -1 ------- null}
+ -t 1.12 -s 0 -d 2 -p cbr -e 1000 -c 1 -i 21 -a 1 -x {0.0 4.0 15 ------- null}
- -t 1.12 -s 0 -d 2 -p cbr -e 1000 -c 1 -i 21 -a 1 -x {0.0 4.0 15 ------- null}
h -t 1.12 -s 0 -d 2 -p cbr -e 1000 -c 1 -i 21 -a 1 -x {0.0 4.0 -1 ------- null}
r -t 1.1204 -s 3 -d 4 -p cbr -e 1000 -c 1 -i 15 -a 1 -x {0.0 4.0 11 ------- null}
r -t 1.1228 -s 0 -d 2 -p cbr -e 1000 -c 1 -i 20 -a 1 -x {0.0 4.0 14 ------- null}
+ -t 1.1228 -s 2 -d 3 -p cbr -e 1000 -c 1 -i 20 -a 1 -x {0.0 4.0 14 ------- null}
- -t 1.1228 -s 2 -d 3 -p cbr -e 1000 -c 1 -i 20 -a 1 -x {0.0 4.0 14 ------- null}
h -t 1.1228 -s 2 -d 3 -p cbr -e 1000 -c 1 -i 20 -a 1 -x {0.0 4.0 -1 ------- null}
r -t 1.123984 -s 2 -d 1 -p ack -e 40 -c 1 -i 16 -a 1 -x {5.0 1.0 1 ------- null}
+ -t 1.123984 -s 1 -d 2 -p tcp -e 1540 -c 1 -i 22 -a 1 -x {1.0 5.0 3 ------- null}
- -t 1.123984 -s 1 -d 2 -p tcp -e 1540 -c 1 -i 22 -a 1 -x {1.0 5.0 3 ------- null}
h -t 1.123984 -s 1 -d 2 -p tcp -e 1540 -c 1 -i 22 -a 1 -x {1.0 5.0 -1 ------- null}
+ -t 1.123984 -s 1 -d 2 -p tcp -e 1540 -c 1 -i 23 -a 1 -x {1.0 5.0 4 ------- null}
r -t 1.125216 -s 2 -d 1 -p ack -e 40 -c 1 -i 17 -a 1 -x {5.0 1.0 2 ------- null}
+ -t 1.125216 -s 1 -d 2 -p tcp -e 1540 -c 1 -i 24 -a 1 -x {1.0 5.0 5 ------- null}
+ -t 1.125216 -s 1 -d 2 -p tcp -e 1540 -c 1 -i 25 -a 1 -x {1.0 5.0 6 ------- null}
- -t 1.125216 -s 1 -d 2 -p tcp -e 1540 -c 1 -i 23 -a 1 -x {1.0 5.0 4 ------- null}
h -t 1.125216 -s 1 -d 2 -p tcp -e 1540 -c 1 -i 23 -a 1 -x {1.0 5.0 -1 ------- null}
r -t 1.1256 -s 2 -d 3 -p cbr -e 1000 -c 1 -i 19 -a 1 -x {0.0 4.0 13 ------- null}
+ -t 1.1256 -s 3 -d 4 -p cbr -e 1000 -c 1 -i 19 -a 1 -x {0.0 4.0 13 ------- null}
- -t 1.1256 -s 3 -d 4 -p cbr -e 1000 -c 1 -i 19 -a 1 -x {0.0 4.0 13 ------- null}
h -t 1.1256 -s 3 -d 4 -p cbr -e 1000 -c 1 -i 19 -a 1 -x {0.0 4.0 -1 ------- null}
- -t 1.126448 -s 1 -d 2 -p tcp -e 1540 -c 1 -i 24 -a 1 -x {1.0 5.0 5 ------- null}
h -t 1.126448 -s 1 -d 2 -p tcp -e 1540 -c 1 -i 24 -a 1 -x {1.0 5.0 -1 ------- null}
- -t 1.12768 -s 1 -d 2 -p tcp -e 1540 -c 1 -i 25 -a 1 -x {1.0 5.0 6 ------- null}
h -t 1.12768 -s 1 -d 2 -p tcp -e 1540 -c 1 -i 25 -a 1 -x {1.0 5.0 -1 ------- null}
+ -t 1.128 -s 0 -d 2 -p cbr -e 1000 -c 1 -i 26 -a 1 -x {0.0 4.0 16 ------- null}
- -t 1.128 -s 0 -d 2 -p cbr -e 1000 -c 1 -i 26 -a 1 -x {0.0 4.0 16 ------- null}
h -t 1.128 -s 0 -d 2 -p cbr -e 1000 -c 1 -i 26 -a 1 -x {0.0 4.0 -1 ------- null}
r -t 1.1284 -s 3 -d 4 -p cbr -e 1000 -c 1 -i 18 -a 1 -x {0.0 4.0 12 ------- null}
r -t 1.1308 -s 0 -d 2 -p cbr -e 1000 -c 1 -i 21 -a 1 -x {0.0 4.0 15 ------- null}
+ -t 1.1308 -s 2 -d 3 -p cbr -e 1000 -c 1 -i 21 -a 1 -x {0.0 4.0 15 ------- null}
- -t 1.1308 -s 2 -d 3 -p cbr -e 1000 -c 1 -i 21 -a 1 -x {0.0 4.0 15 ------- null}
h -t 1.1308 -s 2 -d 3 -p cbr -e 1000 -c 1 -i 21 -a 1 -x {0.0 4.0 -1 ------- null}
r -t 1.1336 -s 2 -d 3 -p cbr -e 1000 -c 1 -i 20 -a 1 -x {0.0 4.0 14 ------- null}
+ -t 1.1336 -s 3 -d 4 -p cbr -e 1000 -c 1 -i 20 -a 1 -x {0.0 4.0 14 ------- null}
- -t 1.1336 -s 3 -d 4 -p cbr -e 1000 -c 1 -i 20 -a 1 -x {0.0 4.0 14 ------- null}
h -t 1.1336 -s 3 -d 4 -p cbr -e 1000 -c 1 -i 20 -a 1 -x {0.0 4.0 -1 ------- null}
r -t 1.135216 -s 1 -d 2 -p tcp -e 1540 -c 1 -i 22 -a 1 -x {1.0 5.0 3 ------- null}
+ -t 1.135216 -s 2 -d 3 -p tcp -e 1540 -c 1 -i 22 -a 1 -x {1.0 5.0 3 ------- null}
- -t 1.135216 -s 2 -d 3 -p tcp -e 1540 -c 1 -i 22 -a 1 -x {1.0 5.0 3 ------- null}
h -t 1.135216 -s 2 -d 3 -p tcp -e 1540 -c 1 -i 22 -a 1 -x {1.0 5.0 -1 ------- null}
+ -t 1.136 -s 0 -d 2 -p cbr -e 1000 -c 1 -i 27 -a 1 -x {0.0 4.0 17 ------- null}
- -t 1.136 -s 0 -d 2 -p cbr -e 1000 -c 1 -i 27 -a 1 -x {0.0 4.0 17 ------- null}
h -t 1.136 -s 0 -d 2 -p cbr -e 1000 -c 1 -i 27 -a 1 -x {0.0 4.0 -1 ------- null}
r -t 1.1364 -s 3 -d 4 -p cbr -e 1000 -c 1 -i 19 -a 1 -x {0.0 4.0 13 ------- null}
r -t 1.136448 -s 1 -d 2 -p tcp -e 1540 -c 1 -i 23 -a 1 -x {1.0 5.0 4 ------- null}
+ -t 1.136448 -s 2 -d 3 -p tcp -e 1540 -c 1 -i 23 -a 1 -x {1.0 5.0 4 ------- null}
- -t 1.136448 -s 2 -d 3 -p tcp -e 1540 -c 1 -i 23 -a 1 -x {1.0 5.0 4 ------- null}
h -t 1.136448 -s 2 -d 3 -p tcp -e 1540 -c 1 -i 23 -a 1 -x {1.0 5.0 -1 ------- null}
r -t 1.13768 -s 1 -d 2 -p tcp -e 1540 -c 1 -i 24 -a 1 -x {1.0 5.0 5 ------- null}
+ -t 1.13768 -s 2 -d 3 -p tcp -e 1540 -c 1 -i 24 -a 1 -x {1.0 5.0 5 ------- null}
- -t 1.13768 -s 2 -d 3 -p tcp -e 1540 -c 1 -i 24 -a 1 -x {1.0 5.0 5 ------- null}
h -t 1.13768 -s 2 -d 3 -p tcp -e 1540 -c 1 -i 24 -a 1 -x {1.0 5.0 -1 ------- null}
r -t 1.1388 -s 0 -d 2 -p cbr -e 1000 -c 1 -i 26 -a 1 -x {0.0 4.0 16 ------- null}
+ -t 1.1388 -s 2 -d 3 -p cbr -e 1000 -c 1 -i 26 -a 1 -x {0.0 4.0 16 ------- null}
r -t 1.138912 -s 1 -d 2 -p tcp -e 1540 -c 1 -i 25 -a 1 -x {1.0 5.0 6 ------- null}
+ -t 1.138912 -s 2 -d 3 -p tcp -e 1540 -c 1 -i 25 -a 1 -x {1.0 5.0 6 ------- null}
- -t 1.138912 -s 2 -d 3 -p cbr -e 1000 -c 1 -i 26 -a 1 -x {0.0 4.0 16 ------- null}
h -t 1.138912 -s 2 -d 3 -p cbr -e 1000 -c 1 -i 26 -a 1 -x {0.0 4.0 -1 ------- null}
- -t 1.139712 -s 2 -d 3 -p tcp -e 1540 -c 1 -i 25 -a 1 -x {1.0 5.0 6 ------- null}
h -t 1.139712 -s 2 -d 3 -p tcp -e 1540 -c 1 -i 25 -a 1 -x {1.0 5.0 -1 ------- null}
r -t 1.1416 -s 2 -d 3 -p cbr -e 1000 -c 1 -i 21 -a 1 -x {0.0 4.0 15 ------- null}
+ -t 1.1416 -s 3 -d 4 -p cbr -e 1000 -c 1 -i 21 -a 1 -x {0.0 4.0 15 ------- null}
- -t 1.1416 -s 3 -d 4 -p cbr -e 1000 -c 1 -i 21 -a 1 -x {0.0 4.0 15 ------- null}
h -t 1.1416 -s 3 -d 4 -p cbr -e 1000 -c 1 -i 21 -a 1 -x {0.0 4.0 -1 ------- null}
+ -t 1.144 -s 0 -d 2 -p cbr -e 1000 -c 1 -i 28 -a 1 -x {0.0 4.0 18 ------- null}
- -t 1.144 -s 0 -d 2 -p cbr -e 1000 -c 1 -i 28 -a 1 -x {0.0 4.0 18 ------- null}
h -t 1.144 -s 0 -d 2 -p cbr -e 1000 -c 1 -i 28 -a 1 -x {0.0 4.0 -1 ------- null}
r -t 1.1444 -s 3 -d 4 -p cbr -e 1000 -c 1 -i 20 -a 1 -x {0.0 4.0 14 ------- null}
r -t 1.146448 -s 2 -d 3 -p tcp -e 1540 -c 1 -i 22 -a 1 -x {1.0 5.0 3 ------- null}
+ -t 1.146448 -s 3 -d 5 -p tcp -e 1540 -c 1 -i 22 -a 1 -x {1.0 5.0 3 ------- null}
- -t 1.146448 -s 3 -d 5 -p tcp -e 1540 -c 1 -i 22 -a 1 -x {1.0 5.0 3 ------- null}
h -t 1.146448 -s 3 -d 5 -p tcp -e 1540 -c 1 -i 22 -a 1 -x {1.0 5.0 -1 ------- null}
r -t 1.1468 -s 0 -d 2 -p cbr -e 1000 -c 1 -i 27 -a 1 -x {0.0 4.0 17 ------- null}
+ -t 1.1468 -s 2 -d 3 -p cbr -e 1000 -c 1 -i 27 -a 1 -x {0.0 4.0 17 ------- null}
- -t 1.1468 -s 2 -d 3 -p cbr -e 1000 -c 1 -i 27 -a 1 -x {0.0 4.0 17 ------- null}
h -t 1.1468 -s 2 -d 3 -p cbr -e 1000 -c 1 -i 27 -a 1 -x {0.0 4.0 -1 ------- null}
r -t 1.14768 -s 2 -d 3 -p tcp -e 1540 -c 1 -i 23 -a 1 -x {1.0 5.0 4 ------- null}
+ -t 1.14768 -s 3 -d 5 -p tcp -e 1540 -c 1 -i 23 -a 1 -x {1.0 5.0 4 ------- null}
- -t 1.14768 -s 3 -d 5 -p tcp -e 1540 -c 1 -i 23 -a 1 -x {1.0 5.0 4 ------- null}
h -t 1.14768 -s 3 -d 5 -p tcp -e 1540 -c 1 -i 23 -a 1 -x {1.0 5.0 -1 ------- null}
r -t 1.148912 -s 2 -d 3 -p tcp -e 1540 -c 1 -i 24 -a 1 -x {1.0 5.0 5 ------- null}
+ -t 1.148912 -s 3 -d 5 -p tcp -e 1540 -c 1 -i 24 -a 1 -x {1.0 5.0 5 ------- null}
- -t 1.148912 -s 3 -d 5 -p tcp -e 1540 -c 1 -i 24 -a 1 -x {1.0 5.0 5 ------- null}
h -t 1.148912 -s 3 -d 5 -p tcp -e 1540 -c 1 -i 24 -a 1 -x {1.0 5.0 -1 ------- null}
r -t 1.149712 -s 2 -d 3 -p cbr -e 1000 -c 1 -i 26 -a 1 -x {0.0 4.0 16 ------- null}
+ -t 1.149712 -s 3 -d 4 -p cbr -e 1000 -c 1 -i 26 -a 1 -x {0.0 4.0 16 ------- null}
- -t 1.149712 -s 3 -d 4 -p cbr -e 1000 -c 1 -i 26 -a 1 -x {0.0 4.0 16 ------- null}
h -t 1.149712 -s 3 -d 4 -p cbr -e 1000 -c 1 -i 26 -a 1 -x {0.0 4.0 -1 ------- null}
r -t 1.150944 -s 2 -d 3 -p tcp -e 1540 -c 1 -i 25 -a 1 -x {1.0 5.0 6 ------- null}
+ -t 1.150944 -s 3 -d 5 -p tcp -e 1540 -c 1 -i 25 -a 1 -x {1.0 5.0 6 ------- null}
- -t 1.150944 -s 3 -d 5 -p tcp -e 1540 -c 1 -i 25 -a 1 -x {1.0 5.0 6 ------- null}
h -t 1.150944 -s 3 -d 5 -p tcp -e 1540 -c 1 -i 25 -a 1 -x {1.0 5.0 -1 ------- null}
+ -t 1.152 -s 0 -d 2 -p cbr -e 1000 -c 1 -i 29 -a 1 -x {0.0 4.0 19 ------- null}
- -t 1.152 -s 0 -d 2 -p cbr -e 1000 -c 1 -i 29 -a 1 -x {0.0 4.0 19 ------- null}
h -t 1.152 -s 0 -d 2 -p cbr -e 1000 -c 1 -i 29 -a 1 -x {0.0 4.0 -1 ------- null}
r -t 1.1524 -s 3 -d 4 -p cbr -e 1000 -c 1 -i 21 -a 1 -x {0.0 4.0 15 ------- null}
r -t 1.1548 -s 0 -d 2 -p cbr -e 1000 -c 1 -i 28 -a 1 -x {0.0 4.0 18 ------- null}
+ -t 1.1548 -s 2 -d 3 -p cbr -e 1000 -c 1 -i 28 -a 1 -x {0.0 4.0 18 ------- null}
- -t 1.1548 -s 2 -d 3 -p cbr -e 1000 -c 1 -i 28 -a 1 -x {0.0 4.0 18 ------- null}
h -t 1.1548 -s 2 -d 3 -p cbr -e 1000 -c 1 -i 28 -a 1 -x {0.0 4.0 -1 ------- null}
r -t 1.1576 -s 2 -d 3 -p cbr -e 1000 -c 1 -i 27 -a 1 -x {0.0 4.0 17 ------- null}
+ -t 1.1576 -s 3 -d 4 -p cbr -e 1000 -c 1 -i 27 -a 1 -x {0.0 4.0 17 ------- null}
- -t 1.1576 -s 3 -d 4 -p cbr -e 1000 -c 1 -i 27 -a 1 -x {0.0 4.0 17 ------- null}
h -t 1.1576 -s 3 -d 4 -p cbr -e 1000 -c 1 -i 27 -a 1 -x {0.0 4.0 -1 ------- null}
r -t 1.15768 -s 3 -d 5 -p tcp -e 1540 -c 1 -i 22 -a 1 -x {1.0 5.0 3 ------- null}
+ -t 1.15768 -s 5 -d 3 -p ack -e 40 -c 1 -i 30 -a 1 -x {5.0 1.0 3 ------- null}
- -t 1.15768 -s 5 -d 3 -p ack -e 40 -c 1 -i 30 -a 1 -x {5.0 1.0 3 ------- null}
h -t 1.15768 -s 5 -d 3 -p ack -e 40 -c 1 -i 30 -a 1 -x {5.0 1.0 -1 ------- null}
r -t 1.158912 -s 3 -d 5 -p tcp -e 1540 -c 1 -i 23 -a 1 -x {1.0 5.0 4 ------- null}
+ -t 1.158912 -s 5 -d 3 -p ack -e 40 -c 1 -i 31 -a 1 -x {5.0 1.0 4 ------- null}
- -t 1.158912 -s 5 -d 3 -p ack -e 40 -c 1 -i 31 -a 1 -x {5.0 1.0 4 ------- null}
h -t 1.158912 -s 5 -d 3 -p ack -e 40 -c 1 -i 31 -a 1 -x {5.0 1.0 -1 ------- null}
+ -t 1.16 -s 0 -d 2 -p cbr -e 1000 -c 1 -i 32 -a 1 -x {0.0 4.0 20 ------- null}
- -t 1.16 -s 0 -d 2 -p cbr -e 1000 -c 1 -i 32 -a 1 -x {0.0 4.0 20 ------- null}
h -t 1.16 -s 0 -d 2 -p cbr -e 1000 -c 1 -i 32 -a 1 -x {0.0 4.0 -1 ------- null}
r -t 1.160144 -s 3 -d 5 -p tcp -e 1540 -c 1 -i 24 -a 1 -x {1.0 5.0 5 ------- null}
+ -t 1.160144 -s 5 -d 3 -p ack -e 40 -c 1 -i 33 -a 1 -x {5.0 1.0 5 ------- null}
- -t 1.160144 -s 5 -d 3 -p ack -e 40 -c 1 -i 33 -a 1 -x {5.0 1.0 5 ------- null}
h -t 1.160144 -s 5 -d 3 -p ack -e 40 -c 1 -i 33 -a 1 -x {5.0 1.0 -1 ------- null}
r -t 1.160512 -s 3 -d 4 -p cbr -e 1000 -c 1 -i 26 -a 1 -x {0.0 4.0 16 ------- null}
r -t 1.162176 -s 3 -d 5 -p tcp -e 1540 -c 1 -i 25 -a 1 -x {1.0 5.0 6 ------- null}
+ -t 1.162176 -s 5 -d 3 -p ack -e 40 -c 1 -i 34 -a 1 -x {5.0 1.0 6 ------- null}
- -t 1.162176 -s 5 -d 3 -p ack -e 40 -c 1 -i 34 -a 1 -x {5.0 1.0 6 ------- null}