+ 1 0 2 cbr 1000 ------- 1 0.0 4.0 0 0
- 1 0 2 cbr 1000 ------- 1 0.0 4.0 0 0
+ 1 1 2 tcp 40 ------- 1 1.0 5.0 0 1
- 1 1 2 tcp 40 ------- 1 1.0 5.0 0 1
+ 1.008 0 2 cbr 1000 ------- 1 0.0 4.0 1 2
- 1.008 0 2 cbr 1000 ------- 1 0.0 4.0 1 2
r 1.010032 1 2 tcp 40 ------- 1 1.0 5.0 0 1
+ 1.010032 2 3 tcp 40 ------- 1 1.0 5.0 0 1
- 1.010032 2 3 tcp 40 ------- 1 1.0 5.0 0 1
r 1.0108 0 2 cbr 1000 ------- 1 0.0 4.0 0 0
+ 1.0108 2 3 cbr 1000 ------- 1 0.0 4.0 0 0
- 1.0108 2 3 cbr 1000 ------- 1 0.0 4.0 0 0
+ 1.016 0 2 cbr 1000 ------- 1 0.0 4.0 2 3
- 1.016 0 2 cbr 1000 ------- 1 0.0 4.0 2 3
r 1.0188 0 2 cbr 1000 ------- 1 0.0 4.0 1 2
+ 1.0188 2 3 cbr 1000 ------- 1 0.0 4.0 1 2
- 1.0188 2 3 cbr 1000 ------- 1 0.0 4.0 1 2
r 1.020064 2 3 tcp 40 ------- 1 1.0 5.0 0 1
+ 1.020064 3 5 tcp 40 ------- 1 1.0 5.0 0 1
- 1.020064 3 5 tcp 40 ------- 1 1.0 5.0 0 1
r 1.0216 2 3 cbr 1000 ------- 1 0.0 4.0 0 0
+ 1.0216 3 4 cbr 1000 ------- 1 0.0 4.0 0 0
- 1.0216 3 4 cbr 1000 ------- 1 0.0 4.0 0 0
+ 1.024 0 2 cbr 1000 ------- 1 0.0 4.0 3 4
- 1.024 0 2 cbr 1000 ------- 1 0.0 4.0 3 4
r 1.0268 0 2 cbr 1000 ------- 1 0.0 4.0 2 3
+ 1.0268 2 3 cbr 1000 ------- 1 0.0 4.0 2 3
- 1.0268 2 3 cbr 1000 ------- 1 0.0 4.0 2 3
r 1.0296 2 3 cbr 1000 ------- 1 0.0 4.0 1 2
+ 1.0296 3 4 cbr 1000 ------- 1 0.0 4.0 1 2
- 1.0296 3 4 cbr 1000 ------- 1 0.0 4.0 1 2
r 1.030096 3 5 tcp 40 ------- 1 1.0 5.0 0 1
+ 1.030096 5 3 ack 40 ------- 1 5.0 1.0 0 5
- 1.030096 5 3 ack 40 ------- 1 5.0 1.0 0 5
+ 1.032 0 2 cbr 1000 ------- 1 0.0 4.0 4 6
- 1.032 0 2 cbr 1000 ------- 1 0.0 4.0 4 6
r 1.0324 3 4 cbr 1000 ------- 1 0.0 4.0 0 0
r 1.0348 0 2 cbr 1000 ------- 1 0.0 4.0 3 4
+ 1.0348 2 3 cbr 1000 ------- 1 0.0 4.0 3 4
- 1.0348 2 3 cbr 1000 ------- 1 0.0 4.0 3 4
r 1.0376 2 3 cbr 1000 ------- 1 0.0 4.0 2 3
+ 1.0376 3 4 cbr 1000 ------- 1 0.0 4.0 2 3
- 1.0376 3 4 cbr 1000 ------- 1 0.0 4.0 2 3
+ 1.04 0 2 cbr 1000 ------- 1 0.0 4.0 5 7
- 1.04 0 2 cbr 1000 ------- 1 0.0 4.0 5 7
r 1.040128 5 3 ack 40 ------- 1 5.0 1.0 0 5
+ 1.040128 3 2 ack 40 ------- 1 5.0 1.0 0 5
- 1.040128 3 2 ack 40 ------- 1 5.0 1.0 0 5
r 1.0404 3 4 cbr 1000 ------- 1 0.0 4.0 1 2
r 1.0428 0 2 cbr 1000 ------- 1 0.0 4.0 4 6
+ 1.0428 2 3 cbr 1000 ------- 1 0.0 4.0 4 6
- 1.0428 2 3 cbr 1000 ------- 1 0.0 4.0 4 6
r 1.0456 2 3 cbr 1000 ------- 1 0.0 4.0 3 4
+ 1.0456 3 4 cbr 1000 ------- 1 0.0 4.0 3 4
- 1.0456 3 4 cbr 1000 ------- 1 0.0 4.0 3 4
+ 1.048 0 2 cbr 1000 ------- 1 0.0 4.0 6 8
- 1.048 0 2 cbr 1000 ------- 1 0.0 4.0 6 8
r 1.0484 3 4 cbr 1000 ------- 1 0.0 4.0 2 3
r 1.05016 3 2 ack 40 ------- 1 5.0 1.0 0 5
+ 1.05016 2 1 ack 40 ------- 1 5.0 1.0 0 5
- 1.05016 2 1 ack 40 ------- 1 5.0 1.0 0 5
r 1.0508 0 2 cbr 1000 ------- 1 0.0 4.0 5 7
+ 1.0508 2 3 cbr 1000 ------- 1 0.0 4.0 5 7
- 1.0508 2 3 cbr 1000 ------- 1 0.0 4.0 5 7
r 1.0536 2 3 cbr 1000 ------- 1 0.0 4.0 4 6
+ 1.0536 3 4 cbr 1000 ------- 1 0.0 4.0 4 6
- 1.0536 3 4 cbr 1000 ------- 1 0.0 4.0 4 6
+ 1.056 0 2 cbr 1000 ------- 1 0.0 4.0 7 9
- 1.056 0 2 cbr 1000 ------- 1 0.0 4.0 7 9
r 1.0564 3 4 cbr 1000 ------- 1 0.0 4.0 3 4
r 1.0588 0 2 cbr 1000 ------- 1 0.0 4.0 6 8
+ 1.0588 2 3 cbr 1000 ------- 1 0.0 4.0 6 8
- 1.0588 2 3 cbr 1000 ------- 1 0.0 4.0 6 8
r 1.060192 2 1 ack 40 ------- 1 5.0 1.0 0 5
+ 1.060192 1 2 tcp 1540 ------- 1 1.0 5.0 1 10
- 1.060192 1 2 tcp 1540 ------- 1 1.0 5.0 1 10
+ 1.060192 1 2 tcp 1540 ------- 1 1.0 5.0 2 11
- 1.061424 1 2 tcp 1540 ------- 1 1.0 5.0 2 11
r 1.0616 2 3 cbr 1000 ------- 1 0.0 4.0 5 7
+ 1.0616 3 4 cbr 1000 ------- 1 0.0 4.0 5 7
- 1.0616 3 4 cbr 1000 ------- 1 0.0 4.0 5 7
+ 1.064 0 2 cbr 1000 ------- 1 0.0 4.0 8 12
- 1.064 0 2 cbr 1000 ------- 1 0.0 4.0 8 12
r 1.0644 3 4 cbr 1000 ------- 1 0.0 4.0 4 6
r 1.0668 0 2 cbr 1000 ------- 1 0.0 4.0 7 9
+ 1.0668 2 3 cbr 1000 ------- 1 0.0 4.0 7 9
- 1.0668 2 3 cbr 1000 ------- 1 0.0 4.0 7 9
r 1.0696 2 3 cbr 1000 ------- 1 0.0 4.0 6 8
+ 1.0696 3 4 cbr 1000 ------- 1 0.0 4.0 6 8
- 1.0696 3 4 cbr 1000 ------- 1 0.0 4.0 6 8
r 1.071424 1 2 tcp 1540 ------- 1 1.0 5.0 1 10
+ 1.071424 2 3 tcp 1540 ------- 1 1.0 5.0 1 10
- 1.071424 2 3 tcp 1540 ------- 1 1.0 5.0 1 10
+ 1.072 0 2 cbr 1000 ------- 1 0.0 4.0 9 13
- 1.072 0 2 cbr 1000 ------- 1 0.0 4.0 9 13
r 1.0724 3 4 cbr 1000 ------- 1 0.0 4.0 5 7
r 1.072656 1 2 tcp 1540 ------- 1 1.0 5.0 2 11
+ 1.072656 2 3 tcp 1540 ------- 1 1.0 5.0 2 11
- 1.072656 2 3 tcp 1540 ------- 1 1.0 5.0 2 11
r 1.0748 0 2 cbr 1000 ------- 1 0.0 4.0 8 12
+ 1.0748 2 3 cbr 1000 ------- 1 0.0 4.0 8 12
- 1.0748 2 3 cbr 1000 ------- 1 0.0 4.0 8 12
r 1.0776 2 3 cbr 1000 ------- 1 0.0 4.0 7 9
+ 1.0776 3 4 cbr 1000 ------- 1 0.0 4.0 7 9
- 1.0776 3 4 cbr 1000 ------- 1 0.0 4.0 7 9
+ 1.08 0 2 cbr 1000 ------- 1 0.0 4.0 10 14
- 1.08 0 2 cbr 1000 ------- 1 0.0 4.0 10 14
r 1.0804 3 4 cbr 1000 ------- 1 0.0 4.0 6 8
r 1.082656 2 3 tcp 1540 ------- 1 1.0 5.0 1 10
+ 1.082656 3 5 tcp 1540 ------- 1 1.0 5.0 1 10
- 1.082656 3 5 tcp 1540 ------- 1 1.0 5.0 1 10
r 1.0828 0 2 cbr 1000 ------- 1 0.0 4.0 9 13
+ 1.0828 2 3 cbr 1000 ------- 1 0.0 4.0 9 13
- 1.0828 2 3 cbr 1000 ------- 1 0.0 4.0 9 13
r 1.083888 2 3 tcp 1540 ------- 1 1.0 5.0 2 11
+ 1.083888 3 5 tcp 1540 ------- 1 1.0 5.0 2 11
- 1.083888 3 5 tcp 1540 ------- 1 1.0 5.0 2 11
r 1.0856 2 3 cbr 1000 ------- 1 0.0 4.0 8 12
+ 1.0856 3 4 cbr 1000 ------- 1 0.0 4.0 8 12
- 1.0856 3 4 cbr 1000 ------- 1 0.0 4.0 8 12
+ 1.088 0 2 cbr 1000 ------- 1 0.0 4.0 11 15
- 1.088 0 2 cbr 1000 ------- 1 0.0 4.0 11 15
r 1.0884 3 4 cbr 1000 ------- 1 0.0 4.0 7 9
r 1.0908 0 2 cbr 1000 ------- 1 0.0 4.0 10 14
+ 1.0908 2 3 cbr 1000 ------- 1 0.0 4.0 10 14
- 1.0908 2 3 cbr 1000 ------- 1 0.0 4.0 10 14
r 1.0936 2 3 cbr 1000 ------- 1 0.0 4.0 9 13
+ 1.0936 3 4 cbr 1000 ------- 1 0.0 4.0 9 13
- 1.0936 3 4 cbr 1000 ------- 1 0.0 4.0 9 13
r 1.093888 3 5 tcp 1540 ------- 1 1.0 5.0 1 10
+ 1.093888 5 3 ack 40 ------- 1 5.0 1.0 1 16
- 1.093888 5 3 ack 40 ------- 1 5.0 1.0 1 16
r 1.09512 3 5 tcp 1540 ------- 1 1.0 5.0 2 11
+ 1.09512 5 3 ack 40 ------- 1 5.0 1.0 2 17
- 1.09512 5 3 ack 40 ------- 1 5.0 1.0 2 17
+ 1.096 0 2 cbr 1000 ------- 1 0.0 4.0 12 18
- 1.096 0 2 cbr 1000 ------- 1 0.0 4.0 12 18
r 1.0964 3 4 cbr 1000 ------- 1 0.0 4.0 8 12
r 1.0988 0 2 cbr 1000 ------- 1 0.0 4.0 11 15
+ 1.0988 2 3 cbr 1000 ------- 1 0.0 4.0 11 15
- 1.0988 2 3 cbr 1000 ------- 1 0.0 4.0 11 15
r 1.1016 2 3 cbr 1000 ------- 1 0.0 4.0 10 14
+ 1.1016 3 4 cbr 1000 ------- 1 0.0 4.0 10 14
- 1.1016 3 4 cbr 1000 ------- 1 0.0 4.0 10 14
r 1.10392 5 3 ack 40 ------- 1 5.0 1.0 1 16
+ 1.10392 3 2 ack 40 ------- 1 5.0 1.0 1 16
- 1.10392 3 2 ack 40 ------- 1 5.0 1.0 1 16
+ 1.104 0 2 cbr 1000 ------- 1 0.0 4.0 13 19
- 1.104 0 2 cbr 1000 ------- 1 0.0 4.0 13 19
r 1.1044 3 4 cbr 1000 ------- 1 0.0 4.0 9 13
r 1.105152 5 3 ack 40 ------- 1 5.0 1.0 2 17
+ 1.105152 3 2 ack 40 ------- 1 5.0 1.0 2 17
- 1.105152 3 2 ack 40 ------- 1 5.0 1.0 2 17
r 1.1068 0 2 cbr 1000 ------- 1 0.0 4.0 12 18
+ 1.1068 2 3 cbr 1000 ------- 1 0.0 4.0 12 18
- 1.1068 2 3 cbr 1000 ------- 1 0.0 4.0 12 18
r 1.1096 2 3 cbr 1000 ------- 1 0.0 4.0 11 15
+ 1.1096 3 4 cbr 1000 ------- 1 0.0 4.0 11 15
- 1.1096 3 4 cbr 1000 ------- 1 0.0 4.0 11 15
+ 1.112 0 2 cbr 1000 ------- 1 0.0 4.0 14 20
- 1.112 0 2 cbr 1000 ------- 1 0.0 4.0 14 20
r 1.1124 3 4 cbr 1000 ------- 1 0.0 4.0 10 14
r 1.113952 3 2 ack 40 ------- 1 5.0 1.0 1 16
+ 1.113952 2 1 ack 40 ------- 1 5.0 1.0 1 16
- 1.113952 2 1 ack 40 ------- 1 5.0 1.0 1 16
r 1.1148 0 2 cbr 1000 ------- 1 0.0 4.0 13 19
+ 1.1148 2 3 cbr 1000 ------- 1 0.0 4.0 13 19
- 1.1148 2 3 cbr 1000 ------- 1 0.0 4.0 13 19
r 1.115184 3 2 ack 40 ------- 1 5.0 1.0 2 17
+ 1.115184 2 1 ack 40 ------- 1 5.0 1.0 2 17
- 1.115184 2 1 ack 40 ------- 1 5.0 1.0 2 17
r 1.1176 2 3 cbr 1000 ------- 1 0.0 4.0 12 18
+ 1.1176 3 4 cbr 1000 ------- 1 0.0 4.0 12 18
- 1.1176 3 4 cbr 1000 ------- 1 0.0 4.0 12 18
+ 1.12 0 2 cbr 1000 ------- 1 0.0 4.0 15 21
- 1.12 0 2 cbr 1000 ------- 1 0.0 4.0 15 21
r 1.1204 3 4 cbr 1000 ------- 1 0.0 4.0 11 15
r 1.1228 0 2 cbr 1000 ------- 1 0.0 4.0 14 20
+ 1.1228 2 3 cbr 1000 ------- 1 0.0 4.0 14 20
- 1.1228 2 3 cbr 1000 ------- 1 0.0 4.0 14 20
r 1.123984 2 1 ack 40 ------- 1 5.0 1.0 1 16
+ 1.123984 1 2 tcp 1540 ------- 1 1.0 5.0 3 22
- 1.123984 1 2 tcp 1540 ------- 1 1.0 5.0 3 22
+ 1.123984 1 2 tcp 1540 ------- 1 1.0 5.0 4 23
r 1.125216 2 1 ack 40 ------- 1 5.0 1.0 2 17
+ 1.125216 1 2 tcp 1540 ------- 1 1.0 5.0 5 24
+ 1.125216 1 2 tcp 1540 ------- 1 1.0 5.0 6 25
- 1.125216 1 2 tcp 1540 ------- 1 1.0 5.0 4 23
r 1.1256 2 3 cbr 1000 ------- 1 0.0 4.0 13 19
+ 1.1256 3 4 cbr 1000 ------- 1 0.0 4.0 13 19
- 1.1256 3 4 cbr 1000 ------- 1 0.0 4.0 13 19
- 1.126448 1 2 tcp 1540 ------- 1 1.0 5.0 5 24
- 1.12768 1 2 tcp 1540 ------- 1 1.0 5.0 6 25
+ 1.128 0 2 cbr 1000 ------- 1 0.0 4.0 16 26
- 1.128 0 2 cbr 1000 ------- 1 0.0 4.0 16 26
r 1.1284 3 4 cbr 1000 ------- 1 0.0 4.0 12 18
r 1.1308 0 2 cbr 1000 ------- 1 0.0 4.0 15 21
+ 1.1308 2 3 cbr 1000 ------- 1 0.0 4.0 15 21
- 1.1308 2 3 cbr 1000 ------- 1 0.0 4.0 15 21
r 1.1336 2 3 cbr 1000 ------- 1 0.0 4.0 14 20
+ 1.1336 3 4 cbr 1000 ------- 1 0.0 4.0 14 20
- 1.1336 3 4 cbr 1000 ------- 1 0.0 4.0 14 20
r 1.135216 1 2 tcp 1540 ------- 1 1.0 5.0 3 22
+ 1.135216 2 3 tcp 1540 ------- 1 1.0 5.0 3 22
- 1.135216 2 3 tcp 1540 ------- 1 1.0 5.0 3 22
+ 1.136 0 2 cbr 1000 ------- 1 0.0 4.0 17 27
- 1.136 0 2 cbr 1000 ------- 1 0.0 4.0 17 27
r 1.1364 3 4 cbr 1000 ------- 1 0.0 4.0 13 19
r 1.136448 1 2 tcp 1540 ------- 1 1.0 5.0 4 23
+ 1.136448 2 3 tcp 1540 ------- 1 1.0 5.0 4 23
- 1.136448 2 3 tcp 1540 ------- 1 1.0 5.0 4 23
r 1.13768 1 2 tcp 1540 ------- 1 1.0 5.0 5 24
+ 1.13768 2 3 tcp 1540 ------- 1 1.0 5.0 5 24
- 1.13768 2 3 tcp 1540 ------- 1 1.0 5.0 5 24
r 1.1388 0 2 cbr 1000 ------- 1 0.0 4.0 16 26
+ 1.1388 2 3 cbr 1000 ------- 1 0.0 4.0 16 26
r 1.138912 1 2 tcp 1540 ------- 1 1.0 5.0 6 25
+ 1.138912 2 3 tcp 1540 ------- 1 1.0 5.0 6 25
- 1.138912 2 3 cbr 1000 ------- 1 0.0 4.0 16 26
- 1.139712 2 3 tcp 1540 ------- 1 1.0 5.0 6 25
r 1.1416 2 3 cbr 1000 ------- 1 0.0 4.0 15 21
+ 1.1416 3 4 cbr 1000 ------- 1 0.0 4.0 15 21
- 1.1416 3 4 cbr 1000 ------- 1 0.0 4.0 15 21
+ 1.144 0 2 cbr 1000 ------- 1 0.0 4.0 18 28
- 1.144 0 2 cbr 1000 ------- 1 0.0 4.0 18 28
r 1.1444 3 4 cbr 1000 ------- 1 0.0 4.0 14 20
r 1.146448 2 3 tcp 1540 ------- 1 1.0 5.0 3 22
+ 1.146448 3 5 tcp 1540 ------- 1 1.0 5.0 3 22
- 1.146448 3 5 tcp 1540 ------- 1 1.0 5.0 3 22
r 1.1468 0 2 cbr 1000 ------- 1 0.0 4.0 17 27
+ 1.1468 2 3 cbr 1000 ------- 1 0.0 4.0 17 27
- 1.1468 2 3 cbr 1000 ------- 1 0.0 4.0 17 27
r 1.14768 2 3 tcp 1540 ------- 1 1.0 5.0 4 23
+ 1.14768 3 5 tcp 1540 ------- 1 1.0 5.0 4 23
- 1.14768 3 5 tcp 1540 ------- 1 1.0 5.0 4 23
r 1.148912 2 3 tcp 1540 ------- 1 1.0 5.0 5 24
+ 1.148912 3 5 tcp 1540 ------- 1 1.0 5.0 5 24
- 1.148912 3 5 tcp 1540 ------- 1 1.0 5.0 5 24
r 1.149712 2 3 cbr 1000 ------- 1 0.0 4.0 16 26
+ 1.149712 3 4 cbr 1000 ------- 1 0.0 4.0 16 26
- 1.149712 3 4 cbr 1000 ------- 1 0.0 4.0 16 26
r 1.150944 2 3 tcp 1540 ------- 1 1.0 5.0 6 25
+ 1.150944 3 5 tcp 1540 ------- 1 1.0 5.0 6 25
- 1.150944 3 5 tcp 1540 ------- 1 1.0 5.0 6 25
+ 1.152 0 2 cbr 1000 ------- 1 0.0 4.0 19 29
- 1.152 0 2 cbr 1000 ------- 1 0.0 4.0 19 29
r 1.1524 3 4 cbr 1000 ------- 1 0.0 4.0 15 21
r 1.1548 0 2 cbr 1000 ------- 1 0.0 4.0 18 28
+ 1.1548 2 3 cbr 1000 ------- 1 0.0 4.0 18 28
- 1.1548 2 3 cbr 1000 ------- 1 0.0 4.0 18 28
r 1.1576 2 3 cbr 1000 ------- 1 0.0 4.0 17 27
+ 1.1576 3 4 cbr 1000 ------- 1 0.0 4.0 17 27
- 1.1576 3 4 cbr 1000 ------- 1 0.0 4.0 17 27
r 1.15768 3 5 tcp 1540 ------- 1 1.0 5.0 3 22
+ 1.15768 5 3 ack 40 ------- 1 5.0 1.0 3 30
- 1.15768 5 3 ack 40 ------- 1 5.0 1.0 3 30
r 1.158912 3 5 tcp 1540 ------- 1 1.0 5.0 4 23
+ 1.158912 5 3 ack 40 ------- 1 5.0 1.0 4 31
- 1.158912 5 3 ack 40 ------- 1 5.0 1.0 4 31
+ 1.16 0 2 cbr 1000 ------- 1 0.0 4.0 20 32
- 1.16 0 2 cbr 1000 ------- 1 0.0 4.0 20 32
r 1.160144 3 5 tcp 1540 ------- 1 1.0 5.0 5 24
+ 1.160144 5 3 ack 40 ------- 1 5.0 1.0 5 33
- 1.160144 5 3 ack 40 ------- 1 5.0 1.0 5 33
r 1.160512 3 4 cbr 1000 ------- 1 0.0 4.0 16 26
r 1.162176 3 5 tcp 1540 ------- 1 1.0 5.0 6 25
+ 1.162176 5 3 ack 40 ------- 1 5.0 1.0 6 34
- 1.162176 5 3 ack 40 ------- 1 5.0 1.0 6 34
r 1.1628 0 2 cbr 1000 ------- 1 0.0 4.0 19 29
+ 1.1628 2 3 cbr 1000 ------- 1 0.0 4.0 19 29
- 1.1628 2 3 cbr 1000 ------- 1 0.0 4.0 19 29
r 1.1656 2 3 cbr 1000 ------- 1 0.0 4.0 18 28
+ 1.1656 3 4 cbr 1000 ------- 1 0.0 4.0 18 28
- 1.1656 3 4 cbr 1000 ------- 1 0.0 4.0 18 28
r 1.167712 5 3 ack 40 ------- 1 5.0 1.0 3 30
+ 1.167712 3 2 ack 40 ------- 1 5.0 1.0 3 30
- 1.167712 3 2 ack 40 ------- 1 5.0 1.0 3 30
+ 1.168 0 2 cbr 1000 ------- 1 0.0 4.0 21 35
- 1.168 0 2 cbr 1000 ------- 1 0.0 4.0 21 35
r 1.1684 3 4 cbr 1000 ------- 1 0.0 4.0 17 27
r 1.168944 5 3 ack 40 ------- 1 5.0 1.0 4 31
+ 1.168944 3 2 ack 40 ------- 1 5.0 1.0 4 31
- 1.168944 3 2 ack 40 ------- 1 5.0 1.0 4 31
r 1.170176 5 3 ack 40 ------- 1 5.0 1.0 5 33
+ 1.170176 3 2 ack 40 ------- 1 5.0 1.0 5 33
- 1.170176 3 2 ack 40 ------- 1 5.0 1.0 5 33
r 1.1708 0 2 cbr 1000 ------- 1 0.0 4.0 20 32
+ 1.1708 2 3 cbr 1000 ------- 1 0.0 4.0 20 32
- 1.1708 2 3 cbr 1000 ------- 1 0.0 4.0 20 32
r 1.172208 5 3 ack 40 ------- 1 5.0 1.0 6 34
+ 1.172208 3 2 ack 40 ------- 1 5.0 1.0 6 34
- 1.172208 3 2 ack 40 ------- 1 5.0 1.0 6 34
r 1.1736 2 3 cbr 1000 ------- 1 0.0 4.0 19 29
+ 1.1736 3 4 cbr 1000 ------- 1 0.0 4.0 19 29
- 1.1736 3 4 cbr 1000 ------- 1 0.0 4.0 19 29
+ 1.176 0 2 cbr 1000 ------- 1 0.0 4.0 22 36
- 1.176 0 2 cbr 1000 ------- 1 0.0 4.0 22 36
r 1.1764 3 4 cbr 1000 ------- 1 0.0 4.0 18 28
r 1.177744 3 2 ack 40 ------- 1 5.0 1.0 3 30
+ 1.177744 2 1 ack 40 ------- 1 5.0 1.0 3 30
- 1.177744 2 1 ack 40 ------- 1 5.0 1.0 3 30
r 1.1788 0 2 cbr 1000 ------- 1 0.0 4.0 21 35
+ 1.1788 2 3 cbr 1000 ------- 1 0.0 4.0 21 35
- 1.1788 2 3 cbr 1000 ------- 1 0.0 4.0 21 35
r 1.178976 3 2 ack 40 ------- 1 5.0 1.0 4 31
+ 1.178976 2 1 ack 40 ------- 1 5.0 1.0 4 31
- 1.178976 2 1 ack 40 ------- 1 5.0 1.0 4 31
r 1.180208 3 2 ack 40 ------- 1 5.0 1.0 5 33
+ 1.180208 2 1 ack 40 ------- 1 5.0 1.0 5 33
- 1.180208 2 1 ack 40 ------- 1 5.0 1.0 5 33
r 1.1816 2 3 cbr 1000 ------- 1 0.0 4.0 20 32
+ 1.1816 3 4 cbr 1000 ------- 1 0.0 4.0 20 32
- 1.1816 3 4 cbr 1000 ------- 1 0.0 4.0 20 32
r 1.18224 3 2 ack 40 ------- 1 5.0 1.0 6 34
+ 1.18224 2 1 ack 40 ------- 1 5.0 1.0 6 34
- 1.18224 2 1 ack 40 ------- 1 5.0 1.0 6 34
+ 1.184 0 2 cbr 1000 ------- 1 0.0 4.0 23 37
- 1.184 0 2 cbr 1000 ------- 1 0.0 4.0 23 37
r 1.1844 3 4 cbr 1000 ------- 1 0.0 4.0 19 29
r 1.1868 0 2 cbr 1000 ------- 1 0.0 4.0 22 36
+ 1.1868 2 3 cbr 1000 ------- 1 0.0 4.0 22 36
- 1.1868 2 3 cbr 1000 ------- 1 0.0 4.0 22 36
r 1.187776 2 1 ack 40 ------- 1 5.0 1.0 3 30
+ 1.187776 1 2 tcp 1540 ------- 1 1.0 5.0 7 38
- 1.187776 1 2 tcp 1540 ------- 1 1.0 5.0 7 38
+ 1.187776 1 2 tcp 1540 ------- 1 1.0 5.0 8 39
r 1.189008 2 1 ack 40 ------- 1 5.0 1.0 4 31
+ 1.189008 1 2 tcp 1540 ------- 1 1.0 5.0 9 40
+ 1.189008 1 2 tcp 1540 ------- 1 1.0 5.0 10 41
- 1.189008 1 2 tcp 1540 ------- 1 1.0 5.0 8 39
r 1.1896 2 3 cbr 1000 ------- 1 0.0 4.0 21 35
+ 1.1896 3 4 cbr 1000 ------- 1 0.0 4.0 21 35
- 1.1896 3 4 cbr 1000 ------- 1 0.0 4.0 21 35
r 1.19024 2 1 ack 40 ------- 1 5.0 1.0 5 33
+ 1.19024 1 2 tcp 1540 ------- 1 1.0 5.0 11 42
+ 1.19024 1 2 tcp 1540 ------- 1 1.0 5.0 12 43
- 1.19024 1 2 tcp 1540 ------- 1 1.0 5.0 9 40
- 1.191472 1 2 tcp 1540 ------- 1 1.0 5.0 10 41
+ 1.192 0 2 cbr 1000 ------- 1 0.0 4.0 24 44
- 1.192 0 2 cbr 1000 ------- 1 0.0 4.0 24 44
r 1.192272 2 1 ack 40 ------- 1 5.0 1.0 6 34
+ 1.192272 1 2 tcp 1540 ------- 1 1.0 5.0 13 45
+ 1.192272 1 2 tcp 1540 ------- 1 1.0 5.0 14 46
r 1.1924 3 4 cbr 1000 ------- 1 0.0 4.0 20 32
- 1.192704 1 2 tcp 1540 ------- 1 1.0 5.0 11 42
- 1.193936 1 2 tcp 1540 ------- 1 1.0 5.0 12 43
r 1.1948 0 2 cbr 1000 ------- 1 0.0 4.0 23 37
+ 1.1948 2 3 cbr 1000 ------- 1 0.0 4.0 23 37
- 1.1948 2 3 cbr 1000 ------- 1 0.0 4.0 23 37
- 1.195168 1 2 tcp 1540 ------- 1 1.0 5.0 13 45
- 1.1964 1 2 tcp 1540 ------- 1 1.0 5.0 14 46
r 1.1976 2 3 cbr 1000 ------- 1 0.0 4.0 22 36
+ 1.1976 3 4 cbr 1000 ------- 1 0.0 4.0 22 36
- 1.1976 3 4 cbr 1000 ------- 1 0.0 4.0 22 36
r 1.199008 1 2 tcp 1540 ------- 1 1.0 5.0 7 38
+ 1.199008 2 3 tcp 1540 ------- 1 1.0 5.0 7 38
- 1.199008 2 3 tcp 1540 ------- 1 1.0 5.0 7 38
+ 1.2 0 2 cbr 1000 ------- 1 0.0 4.0 25 47
- 1.2 0 2 cbr 1000 ------- 1 0.0 4.0 25 47
r 1.20024 1 2 tcp 1540 ------- 1 1.0 5.0 8 39
+ 1.20024 2 3 tcp 1540 ------- 1 1.0 5.0 8 39
- 1.20024 2 3 tcp 1540 ------- 1 1.0 5.0 8 39
r 1.2004 3 4 cbr 1000 ------- 1 0.0 4.0 21 35
r 1.201472 1 2 tcp 1540 ------- 1 1.0 5.0 9 40
+ 1.201472 2 3 tcp 1540 ------- 1 1.0 5.0 9 40
- 1.201472 2 3 tcp 1540 ------- 1 1.0 5.0 9 40
r 1.202704 1 2 tcp 1540 ------- 1 1.0 5.0 10 41
+ 1.202704 2 3 tcp 1540 ------- 1 1.0 5.0 10 41
- 1.202704 2 3 tcp 1540 ------- 1 1.0 5.0 10 41
r 1.2028 0 2 cbr 1000 ------- 1 0.0 4.0 24 44
+ 1.2028 2 3 cbr 1000 ------- 1 0.0 4.0 24 44
r 1.203936 1 2 tcp 1540 ------- 1 1.0 5.0 11 42
+ 1.203936 2 3 tcp 1540 ------- 1 1.0 5.0 11 42
- 1.203936 2 3 cbr 1000 ------- 1 0.0 4.0 24 44
- 1.204736 2 3 tcp 1540 ------- 1 1.0 5.0 11 42
r 1.205168 1 2 tcp 1540 ------- 1 1.0 5.0 12 43
+ 1.205168 2 3 tcp 1540 ------- 1 1.0 5.0 12 43
r 1.2056 2 3 cbr 1000 ------- 1 0.0 4.0 23 37
+ 1.2056 3 4 cbr 1000 ------- 1 0.0 4.0 23 37
- 1.2056 3 4 cbr 1000 ------- 1 0.0 4.0 23 37
- 1.205968 2 3 tcp 1540 ------- 1 1.0 5.0 12 43
r 1.2064 1 2 tcp 1540 ------- 1 1.0 5.0 13 45
+ 1.2064 2 3 tcp 1540 ------- 1 1.0 5.0 13 45
- 1.2072 2 3 tcp 1540 ------- 1 1.0 5.0 13 45
r 1.207632 1 2 tcp 1540 ------- 1 1.0 5.0 14 46
+ 1.207632 2 3 tcp 1540 ------- 1 1.0 5.0 14 46
+ 1.208 0 2 cbr 1000 ------- 1 0.0 4.0 26 48
- 1.208 0 2 cbr 1000 ------- 1 0.0 4.0 26 48
r 1.2084 3 4 cbr 1000 ------- 1 0.0 4.0 22 36
- 1.208432 2 3 tcp 1540 ------- 1 1.0 5.0 14 46
r 1.21024 2 3 tcp 1540 ------- 1 1.0 5.0 7 38
+ 1.21024 3 5 tcp 1540 ------- 1 1.0 5.0 7 38
- 1.21024 3 5 tcp 1540 ------- 1 1.0 5.0 7 38
r 1.2108 0 2 cbr 1000 ------- 1 0.0 4.0 25 47
+ 1.2108 2 3 cbr 1000 ------- 1 0.0 4.0 25 47
- 1.2108 2 3 cbr 1000 ------- 1 0.0 4.0 25 47
r 1.211472 2 3 tcp 1540 ------- 1 1.0 5.0 8 39
+ 1.211472 3 5 tcp 1540 ------- 1 1.0 5.0 8 39
- 1.211472 3 5 tcp 1540 ------- 1 1.0 5.0 8 39
r 1.212704 2 3 tcp 1540 ------- 1 1.0 5.0 9 40
+ 1.212704 3 5 tcp 1540 ------- 1 1.0 5.0 9 40
- 1.212704 3 5 tcp 1540 ------- 1 1.0 5.0 9 40
r 1.213936 2 3 tcp 1540 ------- 1 1.0 5.0 10 41
+ 1.213936 3 5 tcp 1540 ------- 1 1.0 5.0 10 41
- 1.213936 3 5 tcp 1540 ------- 1 1.0 5.0 10 41
r 1.214736 2 3 cbr 1000 ------- 1 0.0 4.0 24 44
+ 1.214736 3 4 cbr 1000 ------- 1 0.0 4.0 24 44
- 1.214736 3 4 cbr 1000 ------- 1 0.0 4.0 24 44
r 1.215968 2 3 tcp 1540 ------- 1 1.0 5.0 11 42
+ 1.215968 3 5 tcp 1540 ------- 1 1.0 5.0 11 42
- 1.215968 3 5 tcp 1540 ------- 1 1.0 5.0 11 42
+ 1.216 0 2 cbr 1000 ------- 1 0.0 4.0 27 49
- 1.216 0 2 cbr 1000 ------- 1 0.0 4.0 27 49
r 1.2164 3 4 cbr 1000 ------- 1 0.0 4.0 23 37
r 1.2172 2 3 tcp 1540 ------- 1 1.0 5.0 12 43
+ 1.2172 3 5 tcp 1540 ------- 1 1.0 5.0 12 43
- 1.2172 3 5 tcp 1540 ------- 1 1.0 5.0 12 43
r 1.218432 2 3 tcp 1540 ------- 1 1.0 5.0 13 45
+ 1.218432 3 5 tcp 1540 ------- 1 1.0 5.0 13 45
- 1.218432 3 5 tcp 1540 ------- 1 1.0 5.0 13 45
r 1.2188 0 2 cbr 1000 ------- 1 0.0 4.0 26 48
+ 1.2188 2 3 cbr 1000 ------- 1 0.0 4.0 26 48
- 1.2188 2 3 cbr 1000 ------- 1 0.0 4.0 26 48
r 1.219664 2 3 tcp 1540 ------- 1 1.0 5.0 14 46
+ 1.219664 3 5 tcp 1540 ------- 1 1.0 5.0 14 46
- 1.219664 3 5 tcp 1540 ------- 1 1.0 5.0 14 46
r 1.221472 3 5 tcp 1540 ------- 1 1.0 5.0 7 38
+ 1.221472 5 3 ack 40 ------- 1 5.0 1.0 7 50
- 1.221472 5 3 ack 40 ------- 1 5.0 1.0 7 50
r 1.2216 2 3 cbr 1000 ------- 1 0.0 4.0 25 47
+ 1.2216 3 4 cbr 1000 ------- 1 0.0 4.0 25 47
- 1.2216 3 4 cbr 1000 ------- 1 0.0 4.0 25 47
r 1.222704 3 5 tcp 1540 ------- 1 1.0 5.0 8 39
+ 1.222704 5 3 ack 40 ------- 1 5.0 1.0 8 51
- 1.222704 5 3 ack 40 ------- 1 5.0 1.0 8 51
r 1.223936 3 5 tcp 1540 ------- 1 1.0 5.0 9 40
+ 1.223936 5 3 ack 40 ------- 1 5.0 1.0 9 52
- 1.223936 5 3 ack 40 ------- 1 5.0 1.0 9 52
+ 1.224 0 2 cbr 1000 ------- 1 0.0 4.0 28 53
- 1.224 0 2 cbr 1000 ------- 1 0.0 4.0 28 53
r 1.225168 3 5 tcp 1540 ------- 1 1.0 5.0 10 41
+ 1.225168 5 3 ack 40 ------- 1 5.0 1.0 10 54
- 1.225168 5 3 ack 40 ------- 1 5.0 1.0 10 54
r 1.225536 3 4 cbr 1000 ------- 1 0.0 4.0 24 44
r 1.2268 0 2 cbr 1000 ------- 1 0.0 4.0 27 49
+ 1.2268 2 3 cbr 1000 ------- 1 0.0 4.0 27 49
- 1.2268 2 3 cbr 1000 ------- 1 0.0 4.0 27 49
r 1.2272 3 5 tcp 1540 ------- 1 1.0 5.0 11 42
+ 1.2272 5 3 ack 40 ------- 1 5.0 1.0 11 55
- 1.2272 5 3 ack 40 ------- 1 5.0 1.0 11 55
r 1.228432 3 5 tcp 1540 ------- 1 1.0 5.0 12 43
+ 1.228432 5 3 ack 40 ------- 1 5.0 1.0 12 56
- 1.228432 5 3 ack 40 ------- 1 5.0 1.0 12 56
r 1.2296 2 3 cbr 1000 ------- 1 0.0 4.0 26 48
+ 1.2296 3 4 cbr 1000 ------- 1 0.0 4.0 26 48
- 1.2296 3 4 cbr 1000 ------- 1 0.0 4.0 26 48
r 1.229664 3 5 tcp 1540 ------- 1 1.0 5.0 13 45
+ 1.229664 5 3 ack 40 ------- 1 5.0 1.0 13 57
- 1.229664 5 3 ack 40 ------- 1 5.0 1.0 13 57
r 1.230896 3 5 tcp 1540 ------- 1 1.0 5.0 14 46
+ 1.230896 5 3 ack 40 ------- 1 5.0 1.0 14 58
- 1.230896 5 3 ack 40 ------- 1 5.0 1.0 14 58
r 1.231504 5 3 ack 40 ------- 1 5.0 1.0 7 50
+ 1.231504 3 2 ack 40 ------- 1 5.0 1.0 7 50
- 1.231504 3 2 ack 40 ------- 1 5.0 1.0 7 50
+ 1.232 0 2 cbr 1000 ------- 1 0.0 4.0 29 59
- 1.232 0 2 cbr 1000 ------- 1 0.0 4.0 29 59
r 1.2324 3 4 cbr 1000 ------- 1 0.0 4.0 25 47
r 1.232736 5 3 ack 40 ------- 1 5.0 1.0 8 51
+ 1.232736 3 2 ack 40 ------- 1 5.0 1.0 8 51
- 1.232736 3 2 ack 40 ------- 1 5.0 1.0 8 51
r 1.233968 5 3 ack 40 ------- 1 5.0 1.0 9 52
+ 1.233968 3 2 ack 40 ------- 1 5.0 1.0 9 52
- 1.233968 3 2 ack 40 ------- 1 5.0 1.0 9 52
r 1.2348 0 2 cbr 1000 ------- 1 0.0 4.0 28 53
+ 1.2348 2 3 cbr 1000 ------- 1 0.0 4.0 28 53
- 1.2348 2 3 cbr 1000 ------- 1 0.0 4.0 28 53
r 1.2352 5 3 ack 40 ------- 1 5.0 1.0 10 54
+ 1.2352 3 2 ack 40 ------- 1 5.0 1.0 10 54
- 1.2352 3 2 ack 40 ------- 1 5.0 1.0 10 54
r 1.237232 5 3 ack 40 ------- 1 5.0 1.0 11 55
+ 1.237232 3 2 ack 40 ------- 1 5.0 1.0 11 55
- 1.237232 3 2 ack 40 ------- 1 5.0 1.0 11 55
r 1.2376 2 3 cbr 1000 ------- 1 0.0 4.0 27 49
+ 1.2376 3 4 cbr 1000 ------- 1 0.0 4.0 27 49
- 1.2376 3 4 cbr 1000 ------- 1 0.0 4.0 27 49
r 1.238464 5 3 ack 40 ------- 1 5.0 1.0 12 56
+ 1.238464 3 2 ack 40 ------- 1 5.0 1.0 12 56
- 1.238464 3 2 ack 40 ------- 1 5.0 1.0 12 56
r 1.239696 5 3 ack 40 ------- 1 5.0 1.0 13 57
+ 1.239696 3 2 ack 40 ------- 1 5.0 1.0 13 57
- 1.239696 3 2 ack 40 ------- 1 5.0 1.0 13 57
+ 1.24 0 2 cbr 1000 ------- 1 0.0 4.0 30 60
- 1.24 0 2 cbr 1000 ------- 1 0.0 4.0 30 60
r 1.2404 3 4 cbr 1000 ------- 1 0.0 4.0 26 48
r 1.240928 5 3 ack 40 ------- 1 5.0 1.0 14 58
+ 1.240928 3 2 ack 40 ------- 1 5.0 1.0 14 58
- 1.240928 3 2 ack 40 ------- 1 5.0 1.0 14 58
r 1.241536 3 2 ack 40 ------- 1 5.0 1.0 7 50
+ 1.241536 2 1 ack 40 ------- 1 5.0 1.0 7 50
- 1.241536 2 1 ack 40 ------- 1 5.0 1.0 7 50
r 1.242768 3 2 ack 40 ------- 1 5.0 1.0 8 51
+ 1.242768 2 1 ack 40 ------- 1 5.0 1.0 8 51
- 1.242768 2 1 ack 40 ------- 1 5.0 1.0 8 51
r 1.2428 0 2 cbr 1000 ------- 1 0.0 4.0 29 59
+ 1.2428 2 3 cbr 1000 ------- 1 0.0 4.0 29 59
- 1.2428 2 3 cbr 1000 ------- 1 0.0 4.0 29 59
r 1.244 3 2 ack 40 ------- 1 5.0 1.0 9 52
+ 1.244 2 1 ack 40 ------- 1 5.0 1.0 9 52
- 1.244 2 1 ack 40 ------- 1 5.0 1.0 9 52
r 1.245232 3 2 ack 40 ------- 1 5.0 1.0 10 54
+ 1.245232 2 1 ack 40 ------- 1 5.0 1.0 10 54
- 1.245232 2 1 ack 40 ------- 1 5.0 1.0 10 54
r 1.2456 2 3 cbr 1000 ------- 1 0.0 4.0 28 53
+ 1.2456 3 4 cbr 1000 ------- 1 0.0 4.0 28 53
- 1.2456 3 4 cbr 1000 ------- 1 0.0 4.0 28 53
r 1.247264 3 2 ack 40 ------- 1 5.0 1.0 11 55
+ 1.247264 2 1 ack 40 ------- 1 5.0 1.0 11 55
- 1.247264 2 1 ack 40 ------- 1 5.0 1.0 11 55
+ 1.248 0 2 cbr 1000 ------- 1 0.0 4.0 31 61
- 1.248 0 2 cbr 1000 ------- 1 0.0 4.0 31 61
r 1.2484 3 4 cbr 1000 ------- 1 0.0 4.0 27 49
r 1.248496 3 2 ack 40 ------- 1 5.0 1.0 12 56
+ 1.248496 2 1 ack 40 ------- 1 5.0 1.0 12 56
- 1.248496 2 1 ack 40 ------- 1 5.0 1.0 12 56
r 1.249728 3 2 ack 40 ------- 1 5.0 1.0 13 57
+ 1.249728 2 1 ack 40 ------- 1 5.0 1.0 13 57
- 1.249728 2 1 ack 40 ------- 1 5.0 1.0 13 57
r 1.2508 0 2 cbr 1000 ------- 1 0.0 4.0 30 60
+ 1.2508 2 3 cbr 1000 ------- 1 0.0 4.0 30 60
- 1.2508 2 3 cbr 1000 ------- 1 0.0 4.0 30 60
r 1.25096 3 2 ack 40 ------- 1 5.0 1.0 14 58
+ 1.25096 2 1 ack 40 ------- 1 5.0 1.0 14 58
- 1.25096 2 1 ack 40 ------- 1 5.0 1.0 14 58
r 1.251568 2 1 ack 40 ------- 1 5.0 1.0 7 50
+ 1.251568 1 2 tcp 1540 ------- 1 1.0 5.0 15 62
- 1.251568 1 2 tcp 1540 ------- 1 1.0 5.0 15 62
+ 1.251568 1 2 tcp 1540 ------- 1 1.0 5.0 16 63
r 1.2528 2 1 ack 40 ------- 1 5.0 1.0 8 51
+ 1.2528 1 2 tcp 1540 ------- 1 1.0 5.0 17 64
+ 1.2528 1 2 tcp 1540 ------- 1 1.0 5.0 18 65
- 1.2528 1 2 tcp 1540 ------- 1 1.0 5.0 16 63
r 1.2536 2 3 cbr 1000 ------- 1 0.0 4.0 29 59
+ 1.2536 3 4 cbr 1000 ------- 1 0.0 4.0 29 59
- 1.2536 3 4 cbr 1000 ------- 1 0.0 4.0 29 59
r 1.254032 2 1 ack 40 ------- 1 5.0 1.0 9 52
+ 1.254032 1 2 tcp 1540 ------- 1 1.0 5.0 19 66
+ 1.254032 1 2 tcp 1540 ------- 1 1.0 5.0 20 67
- 1.254032 1 2 tcp 1540 ------- 1 1.0 5.0 17 64
r 1.255264 2 1 ack 40 ------- 1 5.0 1.0 10 54
+ 1.255264 1 2 tcp 1540 ------- 1 1.0 5.0 21 68
+ 1.255264 1 2 tcp 1540 ------- 1 1.0 5.0 22 69
- 1.255264 1 2 tcp 1540 ------- 1 1.0 5.0 18 65
+ 1.256 0 2 cbr 1000 ------- 1 0.0 4.0 32 70
- 1.256 0 2 cbr 1000 ------- 1 0.0 4.0 32 70
r 1.2564 3 4 cbr 1000 ------- 1 0.0 4.0 28 53
- 1.256496 1 2 tcp 1540 ------- 1 1.0 5.0 19 66
r 1.257296 2 1 ack 40 ------- 1 5.0 1.0 11 55
+ 1.257296 1 2 tcp 1540 ------- 1 1.0 5.0 23 71
+ 1.257296 1 2 tcp 1540 ------- 1 1.0 5.0 24 72
- 1.257728 1 2 tcp 1540 ------- 1 1.0 5.0 20 67
r 1.258528 2 1 ack 40 ------- 1 5.0 1.0 12 56
+ 1.258528 1 2 tcp 1540 ------- 1 1.0 5.0 25 73
+ 1.258528 1 2 tcp 1540 ------- 1 1.0 5.0 26 74
r 1.2588 0 2 cbr 1000 ------- 1 0.0 4.0 31 61
+ 1.2588 2 3 cbr 1000 ------- 1 0.0 4.0 31 61
- 1.2588 2 3 cbr 1000 ------- 1 0.0 4.0 31 61
- 1.25896 1 2 tcp 1540 ------- 1 1.0 5.0 21 68
r 1.25976 2 1 ack 40 ------- 1 5.0 1.0 13 57
+ 1.25976 1 2 tcp 1540 ------- 1 1.0 5.0 27 75
+ 1.25976 1 2 tcp 1540 ------- 1 1.0 5.0 28 76
- 1.260192 1 2 tcp 1540 ------- 1 1.0 5.0 22 69
r 1.260992 2 1 ack 40 ------- 1 5.0 1.0 14 58
+ 1.260992 1 2 tcp 1540 ------- 1 1.0 5.0 29 77
+ 1.260992 1 2 tcp 1540 ------- 1 1.0 5.0 30 78
- 1.261424 1 2 tcp 1540 ------- 1 1.0 5.0 23 71
r 1.2616 2 3 cbr 1000 ------- 1 0.0 4.0 30 60
+ 1.2616 3 4 cbr 1000 ------- 1 0.0 4.0 30 60
- 1.2616 3 4 cbr 1000 ------- 1 0.0 4.0 30 60
- 1.262656 1 2 tcp 1540 ------- 1 1.0 5.0 24 72
r 1.2628 1 2 tcp 1540 ------- 1 1.0 5.0 15 62
+ 1.2628 2 3 tcp 1540 ------- 1 1.0 5.0 15 62
- 1.2628 2 3 tcp 1540 ------- 1 1.0 5.0 15 62
- 1.263888 1 2 tcp 1540 ------- 1 1.0 5.0 25 73
+ 1.264 0 2 cbr 1000 ------- 1 0.0 4.0 33 79
- 1.264 0 2 cbr 1000 ------- 1 0.0 4.0 33 79
r 1.264032 1 2 tcp 1540 ------- 1 1.0 5.0 16 63
+ 1.264032 2 3 tcp 1540 ------- 1 1.0 5.0 16 63
- 1.264032 2 3 tcp 1540 ------- 1 1.0 5.0 16 63
r 1.2644 3 4 cbr 1000 ------- 1 0.0 4.0 29 59
- 1.26512 1 2 tcp 1540 ------- 1 1.0 5.0 26 74
r 1.265264 1 2 tcp 1540 ------- 1 1.0 5.0 17 64
+ 1.265264 2 3 tcp 1540 ------- 1 1.0 5.0 17 64
- 1.265264 2 3 tcp 1540 ------- 1 1.0 5.0 17 64
- 1.266352 1 2 tcp 1540 ------- 1 1.0 5.0 27 75
r 1.266496 1 2 tcp 1540 ------- 1 1.0 5.0 18 65
+ 1.266496 2 3 tcp 1540 ------- 1 1.0 5.0 18 65
- 1.266496 2 3 tcp 1540 ------- 1 1.0 5.0 18 65
r 1.2668 0 2 cbr 1000 ------- 1 0.0 4.0 32 70
+ 1.2668 2 3 cbr 1000 ------- 1 0.0 4.0 32 70
- 1.267584 1 2 tcp 1540 ------- 1 1.0 5.0 28 76
r 1.267728 1 2 tcp 1540 ------- 1 1.0 5.0 19 66
+ 1.267728 2 3 tcp 1540 ------- 1 1.0 5.0 19 66
- 1.267728 2 3 cbr 1000 ------- 1 0.0 4.0 32 70
- 1.268528 2 3 tcp 1540 ------- 1 1.0 5.0 19 66
- 1.268816 1 2 tcp 1540 ------- 1 1.0 5.0 29 77
r 1.26896 1 2 tcp 1540 ------- 1 1.0 5.0 20 67
+ 1.26896 2 3 tcp 1540 ------- 1 1.0 5.0 20 67
r 1.2696 2 3 cbr 1000 ------- 1 0.0 4.0 31 61
+ 1.2696 3 4 cbr 1000 ------- 1 0.0 4.0 31 61
- 1.2696 3 4 cbr 1000 ------- 1 0.0 4.0 31 61
- 1.26976 2 3 tcp 1540 ------- 1 1.0 5.0 20 67
- 1.270048 1 2 tcp 1540 ------- 1 1.0 5.0 30 78
r 1.270192 1 2 tcp 1540 ------- 1 1.0 5.0 21 68
+ 1.270192 2 3 tcp 1540 ------- 1 1.0 5.0 21 68
- 1.270992 2 3 tcp 1540 ------- 1 1.0 5.0 21 68
r 1.271424 1 2 tcp 1540 ------- 1 1.0 5.0 22 69
+ 1.271424 2 3 tcp 1540 ------- 1 1.0 5.0 22 69
+ 1.272 0 2 cbr 1000 ------- 1 0.0 4.0 34 80
- 1.272 0 2 cbr 1000 ------- 1 0.0 4.0 34 80
- 1.272224 2 3 tcp 1540 ------- 1 1.0 5.0 22 69
r 1.2724 3 4 cbr 1000 ------- 1 0.0 4.0 30 60
r 1.272656 1 2 tcp 1540 ------- 1 1.0 5.0 23 71
+ 1.272656 2 3 tcp 1540 ------- 1 1.0 5.0 23 71
- 1.273456 2 3 tcp 1540 ------- 1 1.0 5.0 23 71
r 1.273888 1 2 tcp 1540 ------- 1 1.0 5.0 24 72
+ 1.273888 2 3 tcp 1540 ------- 1 1.0 5.0 24 72
r 1.274032 2 3 tcp 1540 ------- 1 1.0 5.0 15 62
+ 1.274032 3 5 tcp 1540 ------- 1 1.0 5.0 15 62
- 1.274032 3 5 tcp 1540 ------- 1 1.0 5.0 15 62
- 1.274688 2 3 tcp 1540 ------- 1 1.0 5.0 24 72
r 1.2748 0 2 cbr 1000 ------- 1 0.0 4.0 33 79
+ 1.2748 2 3 cbr 1000 ------- 1 0.0 4.0 33 79
r 1.27512 1 2 tcp 1540 ------- 1 1.0 5.0 25 73
+ 1.27512 2 3 tcp 1540 ------- 1 1.0 5.0 25 73
r 1.275264 2 3 tcp 1540 ------- 1 1.0 5.0 16 63
+ 1.275264 3 5 tcp 1540 ------- 1 1.0 5.0 16 63
- 1.275264 3 5 tcp 1540 ------- 1 1.0 5.0 16 63
- 1.27592 2 3 cbr 1000 ------- 1 0.0 4.0 33 79
r 1.276352 1 2 tcp 1540 ------- 1 1.0 5.0 26 74
+ 1.276352 2 3 tcp 1540 ------- 1 1.0 5.0 26 74
r 1.276496 2 3 tcp 1540 ------- 1 1.0 5.0 17 64
+ 1.276496 3 5 tcp 1540 ------- 1 1.0 5.0 17 64
- 1.276496 3 5 tcp 1540 ------- 1 1.0 5.0 17 64
- 1.27672 2 3 tcp 1540 ------- 1 1.0 5.0 25 73
r 1.277584 1 2 tcp 1540 ------- 1 1.0 5.0 27 75
+ 1.277584 2 3 tcp 1540 ------- 1 1.0 5.0 27 75
r 1.277728 2 3 tcp 1540 ------- 1 1.0 5.0 18 65
+ 1.277728 3 5 tcp 1540 ------- 1 1.0 5.0 18 65
- 1.277728 3 5 tcp 1540 ------- 1 1.0 5.0 18 65
- 1.277952 2 3 tcp 1540 ------- 1 1.0 5.0 26 74
r 1.278528 2 3 cbr 1000 ------- 1 0.0 4.0 32 70
+ 1.278528 3 4 cbr 1000 ------- 1 0.0 4.0 32 70
- 1.278528 3 4 cbr 1000 ------- 1 0.0 4.0 32 70