n -t * -s 1  -x 0 -y 0 -Z 0 -z 20  -v circle -c green
n -t * -s 0  -x 0 -y 0 -Z 0 -z 20  -v circle -c green
n -t * -s 2  -x 0 -y 0 -Z 0 -z 20  -v circle -c green
n -t * -s 3  -x 0 -y 0 -Z 0 -z 20  -v circle -c green
V -t * -v 1.0a5 -a 0
W -t * -x 500 -y 500
A -t * -n 1 -p 0 -o 0x7fffffff -c 30 -a 1
A -t * -h 1 -m 1073741823 -s 0
+ -t 0.184410103 -s 0 -d -1 -p message -e 32 -c 2 -a 0 -i 0 -k RTR 
- -t 0.184410103 -s 0 -d -1 -p message -e 32 -c 2 -a 0 -i 0 -k RTR
h -t 0.184410103 -s 0 -d -1 -p message -e 32 -c 2 -a 0 -i 0 -k RTR
+ -t 0.184845103 -s 0 -d -1 -p message -e 90 -c 2 -a 0 -i 0 -k MAC 
- -t 0.184845103 -s 0 -d -1 -p message -e 90 -c 2 -a 0 -i 0 -k MAC
h -t 0.184845103 -s 0 -d -1 -p message -e 90 -c 2 -a 0 -i 0 -k MAC
r -t 0.185565117 -s 1 -d -1 -p message -e 32 -c 2 -a 0 -i 0 -k MAC
r -t 0.185565164 -s 2 -d -1 -p message -e 32 -c 2 -a 0 -i 0 -k MAC
r -t 0.185565209 -s 3 -d -1 -p message -e 32 -c 2 -a 0 -i 0 -k MAC
r -t 0.185590117 -s 1 -d -1 -p message -e 32 -c 2 -a 0 -i 0 -k RTR
r -t 0.185590164 -s 2 -d -1 -p message -e 32 -c 2 -a 0 -i 0 -k RTR
r -t 0.185590209 -s 3 -d -1 -p message -e 32 -c 2 -a 0 -i 0 -k RTR
+ -t 0.500000000 -s 0 -d -1 -p tcp -e 40 -c 2 -a 0 -i 1 -k AGT 
- -t 0.500000000 -s 0 -d -1 -p tcp -e 40 -c 2 -a 0 -i 1 -k AGT
h -t 0.500000000 -s 0 -d -1 -p tcp -e 40 -c 2 -a 0 -i 1 -k AGT
+ -t 0.634286779 -s 3 -d -1 -p message -e 32 -c 2 -a 0 -i 2 -k RTR 
- -t 0.634286779 -s 3 -d -1 -p message -e 32 -c 2 -a 0 -i 2 -k RTR
h -t 0.634286779 -s 3 -d -1 -p message -e 32 -c 2 -a 0 -i 2 -k RTR
+ -t 0.634901779 -s 3 -d -1 -p message -e 90 -c 2 -a 0 -i 2 -k MAC 
- -t 0.634901779 -s 3 -d -1 -p message -e 90 -c 2 -a 0 -i 2 -k MAC
h -t 0.634901779 -s 3 -d -1 -p message -e 90 -c 2 -a 0 -i 2 -k MAC
r -t 0.635621825 -s 2 -d -1 -p message -e 32 -c 2 -a 0 -i 2 -k MAC
r -t 0.635621870 -s 1 -d -1 -p message -e 32 -c 2 -a 0 -i 2 -k MAC
r -t 0.635621884 -s 0 -d -1 -p message -e 32 -c 2 -a 0 -i 2 -k MAC
r -t 0.635646825 -s 2 -d -1 -p message -e 32 -c 2 -a 0 -i 2 -k RTR
r -t 0.635646870 -s 1 -d -1 -p message -e 32 -c 2 -a 0 -i 2 -k RTR
r -t 0.635646884 -s 0 -d -1 -p message -e 32 -c 2 -a 0 -i 2 -k RTR
+ -t 0.883484847 -s 1 -d -1 -p message -e 32 -c 2 -a 0 -i 3 -k RTR 
- -t 0.883484847 -s 1 -d -1 -p message -e 32 -c 2 -a 0 -i 3 -k RTR
h -t 0.883484847 -s 1 -d -1 -p message -e 32 -c 2 -a 0 -i 3 -k RTR
+ -t 0.883719847 -s 1 -d -1 -p message -e 90 -c 2 -a 0 -i 3 -k MAC 
- -t 0.883719847 -s 1 -d -1 -p message -e 90 -c 2 -a 0 -i 3 -k MAC
h -t 0.883719847 -s 1 -d -1 -p message -e 90 -c 2 -a 0 -i 3 -k MAC
r -t 0.884439861 -s 0 -d -1 -p message -e 32 -c 2 -a 0 -i 3 -k MAC
r -t 0.884439894 -s 2 -d -1 -p message -e 32 -c 2 -a 0 -i 3 -k MAC
r -t 0.884439938 -s 3 -d -1 -p message -e 32 -c 2 -a 0 -i 3 -k MAC
r -t 0.884464861 -s 0 -d -1 -p message -e 32 -c 2 -a 0 -i 3 -k RTR
+ -t 0.884464861 -s 0 -d 1 -p tcp -e 80 -c 2 -a 0 -i 1 -k RTR 
- -t 0.884464861 -s 0 -d 1 -p tcp -e 80 -c 2 -a 0 -i 1 -k RTR
h -t 0.884464861 -s 0 -d 1 -p tcp -e 80 -c 2 -a 0 -i 1 -k RTR
r -t 0.884464894 -s 2 -d -1 -p message -e 32 -c 2 -a 0 -i 3 -k RTR
r -t 0.884464938 -s 3 -d -1 -p message -e 32 -c 2 -a 0 -i 3 -k RTR
+ -t 0.884859861 -s 0 -d -1 -p ARP -e 86 -c 2 -a 0 -i 0 -k MAC 
- -t 0.884859861 -s 0 -d -1 -p ARP -e 86 -c 2 -a 0 -i 0 -k MAC
h -t 0.884859861 -s 0 -d -1 -p ARP -e 86 -c 2 -a 0 -i 0 -k MAC
r -t 0.885547875 -s 1 -d -1 -p ARP -e 28 -c 2 -a 0 -i 0 -k MAC
r -t 0.885547922 -s 2 -d -1 -p ARP -e 28 -c 2 -a 0 -i 0 -k MAC
r -t 0.885547966 -s 3 -d -1 -p ARP -e 28 -c 2 -a 0 -i 0 -k MAC
+ -t 0.885717875 -s 1 -d -1 -p RTS -e 44 -c 2 -a 0 -i 0 -k MAC 
- -t 0.885717875 -s 1 -d -1 -p RTS -e 44 -c 2 -a 0 -i 0 -k MAC
h -t 0.885717875 -s 1 -d -1 -p RTS -e 44 -c 2 -a 0 -i 0 -k MAC
r -t 0.886069889 -s 0 -d -1 -p RTS -e 44 -c 2 -a 0 -i 0 -k MAC
+ -t 0.886079889 -s 0 -d -1 -p CTS -e 38 -c 2 -a 0 -i 0 -k MAC 
- -t 0.886079889 -s 0 -d -1 -p CTS -e 38 -c 2 -a 0 -i 0 -k MAC
h -t 0.886079889 -s 0 -d -1 -p CTS -e 38 -c 2 -a 0 -i 0 -k MAC
r -t 0.886383903 -s 1 -d -1 -p CTS -e 38 -c 2 -a 0 -i 0 -k MAC
+ -t 0.886393903 -s 1 -d -1 -p ARP -e 86 -c 2 -a 0 -i 0 -k MAC 
- -t 0.886393903 -s 1 -d -1 -p ARP -e 86 -c 2 -a 0 -i 0 -k MAC
h -t 0.886393903 -s 1 -d -1 -p ARP -e 86 -c 2 -a 0 -i 0 -k MAC
r -t 0.887081917 -s 0 -d -1 -p ARP -e 28 -c 2 -a 0 -i 0 -k MAC
+ -t 0.887091917 -s 0 -d -1 -p ACK -e 38 -c 2 -a 0 -i 0 -k MAC 
- -t 0.887091917 -s 0 -d -1 -p ACK -e 38 -c 2 -a 0 -i 0 -k MAC
h -t 0.887091917 -s 0 -d -1 -p ACK -e 38 -c 2 -a 0 -i 0 -k MAC
r -t 0.887395931 -s 1 -d -1 -p ACK -e 38 -c 2 -a 0 -i 0 -k MAC
+ -t 0.887645917 -s 0 -d -1 -p RTS -e 44 -c 2 -a 0 -i 0 -k MAC 
- -t 0.887645917 -s 0 -d -1 -p RTS -e 44 -c 2 -a 0 -i 0 -k MAC
h -t 0.887645917 -s 0 -d -1 -p RTS -e 44 -c 2 -a 0 -i 0 -k MAC
r -t 0.887997931 -s 1 -d -1 -p RTS -e 44 -c 2 -a 0 -i 0 -k MAC
+ -t 0.888007931 -s 1 -d -1 -p CTS -e 38 -c 2 -a 0 -i 0 -k MAC 
- -t 0.888007931 -s 1 -d -1 -p CTS -e 38 -c 2 -a 0 -i 0 -k MAC
h -t 0.888007931 -s 1 -d -1 -p CTS -e 38 -c 2 -a 0 -i 0 -k MAC
r -t 0.888311946 -s 0 -d -1 -p CTS -e 38 -c 2 -a 0 -i 0 -k MAC
+ -t 0.888321946 -s 0 -d 1 -p tcp -e 138 -c 2 -a 0 -i 1 -k MAC 
- -t 0.888321946 -s 0 -d 1 -p tcp -e 138 -c 2 -a 0 -i 1 -k MAC
h -t 0.888321946 -s 0 -d 1 -p tcp -e 138 -c 2 -a 0 -i 1 -k MAC
r -t 0.889425960 -s 1 -d 1 -p tcp -e 80 -c 2 -a 0 -i 1 -k MAC
+ -t 0.889435960 -s 1 -d -1 -p ACK -e 38 -c 2 -a 0 -i 0 -k MAC 
- -t 0.889435960 -s 1 -d -1 -p ACK -e 38 -c 2 -a 0 -i 0 -k MAC
h -t 0.889435960 -s 1 -d -1 -p ACK -e 38 -c 2 -a 0 -i 0 -k MAC
r -t 0.889450960 -s 1 -d 1 -p tcp -e 80 -c 2 -a 0 -i 1 -k AGT
+ -t 0.889450960 -s 1 -d -1 -p ack -e 40 -c 2 -a 0 -i 4 -k AGT 
- -t 0.889450960 -s 1 -d -1 -p ack -e 40 -c 2 -a 0 -i 4 -k AGT
h -t 0.889450960 -s 1 -d -1 -p ack -e 40 -c 2 -a 0 -i 4 -k AGT
+ -t 0.889450960 -s 1 -d 0 -p ack -e 60 -c 2 -a 0 -i 4 -k RTR 
- -t 0.889450960 -s 1 -d 0 -p ack -e 60 -c 2 -a 0 -i 4 -k RTR
h -t 0.889450960 -s 1 -d 0 -p ack -e 60 -c 2 -a 0 -i 4 -k RTR
r -t 0.889739974 -s 0 -d -1 -p ACK -e 38 -c 2 -a 0 -i 0 -k MAC
+ -t 0.890009960 -s 1 -d -1 -p RTS -e 44 -c 2 -a 0 -i 0 -k MAC 
- -t 0.890009960 -s 1 -d -1 -p RTS -e 44 -c 2 -a 0 -i 0 -k MAC
h -t 0.890009960 -s 1 -d -1 -p RTS -e 44 -c 2 -a 0 -i 0 -k MAC
r -t 0.890361974 -s 0 -d -1 -p RTS -e 44 -c 2 -a 0 -i 0 -k MAC
+ -t 0.890371974 -s 0 -d -1 -p CTS -e 38 -c 2 -a 0 -i 0 -k MAC 
- -t 0.890371974 -s 0 -d -1 -p CTS -e 38 -c 2 -a 0 -i 0 -k MAC
h -t 0.890371974 -s 0 -d -1 -p CTS -e 38 -c 2 -a 0 -i 0 -k MAC
r -t 0.890675988 -s 1 -d -1 -p CTS -e 38 -c 2 -a 0 -i 0 -k MAC
+ -t 0.890685988 -s 1 -d 0 -p ack -e 118 -c 2 -a 0 -i 4 -k MAC 
- -t 0.890685988 -s 1 -d 0 -p ack -e 118 -c 2 -a 0 -i 4 -k MAC
h -t 0.890685988 -s 1 -d 0 -p ack -e 118 -c 2 -a 0 -i 4 -k MAC
r -t 0.891630002 -s 0 -d 0 -p ack -e 60 -c 2 -a 0 -i 4 -k MAC
+ -t 0.891640002 -s 0 -d -1 -p ACK -e 38 -c 2 -a 0 -i 0 -k MAC 
- -t 0.891640002 -s 0 -d -1 -p ACK -e 38 -c 2 -a 0 -i 0 -k MAC
h -t 0.891640002 -s 0 -d -1 -p ACK -e 38 -c 2 -a 0 -i 0 -k MAC
r -t 0.891655002 -s 0 -d 0 -p ack -e 60 -c 2 -a 0 -i 4 -k AGT
+ -t 0.891655002 -s 0 -d -1 -p tcp -e 1040 -c 2 -a 0 -i 5 -k AGT 
- -t 0.891655002 -s 0 -d -1 -p tcp -e 1040 -c 2 -a 0 -i 5 -k AGT
h -t 0.891655002 -s 0 -d -1 -p tcp -e 1040 -c 2 -a 0 -i 5 -k AGT
+ -t 0.891655002 -s 0 -d 1 -p tcp -e 1060 -c 2 -a 0 -i 5 -k RTR 
- -t 0.891655002 -s 0 -d 1 -p tcp -e 1060 -c 2 -a 0 -i 5 -k RTR
h -t 0.891655002 -s 0 -d 1 -p tcp -e 1060 -c 2 -a 0 -i 5 -k RTR
+ -t 0.891655002 -s 0 -d -1 -p tcp -e 1040 -c 2 -a 0 -i 6 -k AGT 
- -t 0.891655002 -s 0 -d -1 -p tcp -e 1040 -c 2 -a 0 -i 6 -k AGT
h -t 0.891655002 -s 0 -d -1 -p tcp -e 1040 -c 2 -a 0 -i 6 -k AGT
+ -t 0.891655002 -s 0 -d 1 -p tcp -e 1060 -c 2 -a 0 -i 6 -k RTR 
- -t 0.891655002 -s 0 -d 1 -p tcp -e 1060 -c 2 -a 0 -i 6 -k RTR
h -t 0.891655002 -s 0 -d 1 -p tcp -e 1060 -c 2 -a 0 -i 6 -k RTR
r -t 0.891944016 -s 1 -d -1 -p ACK -e 38 -c 2 -a 0 -i 0 -k MAC
+ -t 0.892234002 -s 0 -d -1 -p RTS -e 44 -c 2 -a 0 -i 0 -k MAC 
- -t 0.892234002 -s 0 -d -1 -p RTS -e 44 -c 2 -a 0 -i 0 -k MAC
h -t 0.892234002 -s 0 -d -1 -p RTS -e 44 -c 2 -a 0 -i 0 -k MAC
r -t 0.892586016 -s 1 -d -1 -p RTS -e 44 -c 2 -a 0 -i 0 -k MAC
+ -t 0.892596016 -s 1 -d -1 -p CTS -e 38 -c 2 -a 0 -i 0 -k MAC 
- -t 0.892596016 -s 1 -d -1 -p CTS -e 38 -c 2 -a 0 -i 0 -k MAC
h -t 0.892596016 -s 1 -d -1 -p CTS -e 38 -c 2 -a 0 -i 0 -k MAC
r -t 0.892900030 -s 0 -d -1 -p CTS -e 38 -c 2 -a 0 -i 0 -k MAC
+ -t 0.892910030 -s 0 -d 1 -p tcp -e 1118 -c 2 -a 0 -i 5 -k MAC 
- -t 0.892910030 -s 0 -d 1 -p tcp -e 1118 -c 2 -a 0 -i 5 -k MAC
h -t 0.892910030 -s 0 -d 1 -p tcp -e 1118 -c 2 -a 0 -i 5 -k MAC
r -t 0.901854045 -s 1 -d 1 -p tcp -e 1060 -c 2 -a 0 -i 5 -k MAC
+ -t 0.901864045 -s 1 -d -1 -p ACK -e 38 -c 2 -a 0 -i 0 -k MAC 
- -t 0.901864045 -s 1 -d -1 -p ACK -e 38 -c 2 -a 0 -i 0 -k MAC
h -t 0.901864045 -s 1 -d -1 -p ACK -e 38 -c 2 -a 0 -i 0 -k MAC
r -t 0.901879045 -s 1 -d 1 -p tcp -e 1060 -c 2 -a 0 -i 5 -k AGT
+ -t 0.901879045 -s 1 -d -1 -p ack -e 40 -c 2 -a 0 -i 7 -k AGT 
- -t 0.901879045 -s 1 -d -1 -p ack -e 40 -c 2 -a 0 -i 7 -k AGT
h -t 0.901879045 -s 1 -d -1 -p ack -e 40 -c 2 -a 0 -i 7 -k AGT
+ -t 0.901879045 -s 1 -d 0 -p ack -e 60 -c 2 -a 0 -i 7 -k RTR 
- -t 0.901879045 -s 1 -d 0 -p ack -e 60 -c 2 -a 0 -i 7 -k RTR
h -t 0.901879045 -s 1 -d 0 -p ack -e 60 -c 2 -a 0 -i 7 -k RTR
r -t 0.902168059 -s 0 -d -1 -p ACK -e 38 -c 2 -a 0 -i 0 -k MAC
+ -t 0.902398059 -s 0 -d -1 -p RTS -e 44 -c 2 -a 0 -i 0 -k MAC 
- -t 0.902398059 -s 0 -d -1 -p RTS -e 44 -c 2 -a 0 -i 0 -k MAC
h -t 0.902398059 -s 0 -d -1 -p RTS -e 44 -c 2 -a 0 -i 0 -k MAC
r -t 0.902750073 -s 1 -d -1 -p RTS -e 44 -c 2 -a 0 -i 0 -k MAC
+ -t 0.902760073 -s 1 -d -1 -p CTS -e 38 -c 2 -a 0 -i 0 -k MAC 
- -t 0.902760073 -s 1 -d -1 -p CTS -e 38 -c 2 -a 0 -i 0 -k MAC
h -t 0.902760073 -s 1 -d -1 -p CTS -e 38 -c 2 -a 0 -i 0 -k MAC
r -t 0.903064087 -s 0 -d -1 -p CTS -e 38 -c 2 -a 0 -i 0 -k MAC
+ -t 0.903074087 -s 0 -d 1 -p tcp -e 1118 -c 2 -a 0 -i 6 -k MAC 
- -t 0.903074087 -s 0 -d 1 -p tcp -e 1118 -c 2 -a 0 -i 6 -k MAC
h -t 0.903074087 -s 0 -d 1 -p tcp -e 1118 -c 2 -a 0 -i 6 -k MAC
r -t 0.912018101 -s 1 -d 1 -p tcp -e 1060 -c 2 -a 0 -i 6 -k MAC
+ -t 0.912028101 -s 1 -d -1 -p ACK -e 38 -c 2 -a 0 -i 0 -k MAC 
- -t 0.912028101 -s 1 -d -1 -p ACK -e 38 -c 2 -a 0 -i 0 -k MAC
h -t 0.912028101 -s 1 -d -1 -p ACK -e 38 -c 2 -a 0 -i 0 -k MAC
r -t 0.912043101 -s 1 -d 1 -p tcp -e 1060 -c 2 -a 0 -i 6 -k AGT
+ -t 0.912043101 -s 1 -d -1 -p ack -e 40 -c 2 -a 0 -i 8 -k AGT 
- -t 0.912043101 -s 1 -d -1 -p ack -e 40 -c 2 -a 0 -i 8 -k AGT
h -t 0.912043101 -s 1 -d -1 -p ack -e 40 -c 2 -a 0 -i 8 -k AGT
+ -t 0.912043101 -s 1 -d 0 -p ack -e 60 -c 2 -a 0 -i 8 -k RTR 
- -t 0.912043101 -s 1 -d 0 -p ack -e 60 -c 2 -a 0 -i 8 -k RTR
h -t 0.912043101 -s 1 -d 0 -p ack -e 60 -c 2 -a 0 -i 8 -k RTR
r -t 0.912332115 -s 0 -d -1 -p ACK -e 38 -c 2 -a 0 -i 0 -k MAC
+ -t 0.912402101 -s 1 -d -1 -p RTS -e 44 -c 2 -a 0 -i 0 -k MAC 
- -t 0.912402101 -s 1 -d -1 -p RTS -e 44 -c 2 -a 0 -i 0 -k MAC
h -t 0.912402101 -s 1 -d -1 -p RTS -e 44 -c 2 -a 0 -i 0 -k MAC
r -t 0.912754115 -s 0 -d -1 -p RTS -e 44 -c 2 -a 0 -i 0 -k MAC
+ -t 0.912764115 -s 0 -d -1 -p CTS -e 38 -c 2 -a 0 -i 0 -k MAC 
- -t 0.912764115 -s 0 -d -1 -p CTS -e 38 -c 2 -a 0 -i 0 -k MAC
h -t 0.912764115 -s 0 -d -1 -p CTS -e 38 -c 2 -a 0 -i 0 -k MAC
r -t 0.913068129 -s 1 -d -1 -p CTS -e 38 -c 2 -a 0 -i 0 -k MAC
+ -t 0.913078129 -s 1 -d 0 -p ack -e 118 -c 2 -a 0 -i 7 -k MAC 
- -t 0.913078129 -s 1 -d 0 -p ack -e 118 -c 2 -a 0 -i 7 -k MAC
h -t 0.913078129 -s 1 -d 0 -p ack -e 118 -c 2 -a 0 -i 7 -k MAC
r -t 0.914022144 -s 0 -d 0 -p ack -e 60 -c 2 -a 0 -i 7 -k MAC
+ -t 0.914032144 -s 0 -d -1 -p ACK -e 38 -c 2 -a 0 -i 0 -k MAC 
- -t 0.914032144 -s 0 -d -1 -p ACK -e 38 -c 2 -a 0 -i 0 -k MAC
h -t 0.914032144 -s 0 -d -1 -p ACK -e 38 -c 2 -a 0 -i 0 -k MAC
r -t 0.914047144 -s 0 -d 0 -p ack -e 60 -c 2 -a 0 -i 7 -k AGT
+ -t 0.914047144 -s 0 -d -1 -p tcp -e 1040 -c 2 -a 0 -i 9 -k AGT 
- -t 0.914047144 -s 0 -d -1 -p tcp -e 1040 -c 2 -a 0 -i 9 -k AGT
h -t 0.914047144 -s 0 -d -1 -p tcp -e 1040 -c 2 -a 0 -i 9 -k AGT
+ -t 0.914047144 -s 0 -d 1 -p tcp -e 1060 -c 2 -a 0 -i 9 -k RTR 
- -t 0.914047144 -s 0 -d 1 -p tcp -e 1060 -c 2 -a 0 -i 9 -k RTR
h -t 0.914047144 -s 0 -d 1 -p tcp -e 1060 -c 2 -a 0 -i 9 -k RTR
+ -t 0.914047144 -s 0 -d -1 -p tcp -e 1040 -c 2 -a 0 -i 10 -k AGT 
- -t 0.914047144 -s 0 -d -1 -p tcp -e 1040 -c 2 -a 0 -i 10 -k AGT
h -t 0.914047144 -s 0 -d -1 -p tcp -e 1040 -c 2 -a 0 -i 10 -k AGT
+ -t 0.914047144 -s 0 -d 1 -p tcp -e 1060 -c 2 -a 0 -i 10 -k RTR 
- -t 0.914047144 -s 0 -d 1 -p tcp -e 1060 -c 2 -a 0 -i 10 -k RTR
h -t 0.914047144 -s 0 -d 1 -p tcp -e 1060 -c 2 -a 0 -i 10 -k RTR
r -t 0.914336158 -s 1 -d -1 -p ACK -e 38 -c 2 -a 0 -i 0 -k MAC
+ -t 0.914786158 -s 1 -d -1 -p RTS -e 44 -c 2 -a 0 -i 0 -k MAC 
- -t 0.914786158 -s 1 -d -1 -p RTS -e 44 -c 2 -a 0 -i 0 -k MAC
h -t 0.914786158 -s 1 -d -1 -p RTS -e 44 -c 2 -a 0 -i 0 -k MAC
r -t 0.915138172 -s 0 -d -1 -p RTS -e 44 -c 2 -a 0 -i 0 -k MAC
+ -t 0.915148172 -s 0 -d -1 -p CTS -e 38 -c 2 -a 0 -i 0 -k MAC 
- -t 0.915148172 -s 0 -d -1 -p CTS -e 38 -c 2 -a 0 -i 0 -k MAC
h -t 0.915148172 -s 0 -d -1 -p CTS -e 38 -c 2 -a 0 -i 0 -k MAC
r -t 0.915452186 -s 1 -d -1 -p CTS -e 38 -c 2 -a 0 -i 0 -k MAC
+ -t 0.915462186 -s 1 -d 0 -p ack -e 118 -c 2 -a 0 -i 8 -k MAC 
- -t 0.915462186 -s 1 -d 0 -p ack -e 118 -c 2 -a 0 -i 8 -k MAC
h -t 0.915462186 -s 1 -d 0 -p ack -e 118 -c 2 -a 0 -i 8 -k MAC
r -t 0.916406200 -s 0 -d 0 -p ack -e 60 -c 2 -a 0 -i 8 -k MAC
+ -t 0.916416200 -s 0 -d -1 -p ACK -e 38 -c 2 -a 0 -i 0 -k MAC 
- -t 0.916416200 -s 0 -d -1 -p ACK -e 38 -c 2 -a 0 -i 0 -k MAC
h -t 0.916416200 -s 0 -d -1 -p ACK -e 38 -c 2 -a 0 -i 0 -k MAC
r -t 0.916431200 -s 0 -d 0 -p ack -e 60 -c 2 -a 0 -i 8 -k AGT
+ -t 0.916431200 -s 0 -d -1 -p tcp -e 1040 -c 2 -a 0 -i 11 -k AGT 
- -t 0.916431200 -s 0 -d -1 -p tcp -e 1040 -c 2 -a 0 -i 11 -k AGT
h -t 0.916431200 -s 0 -d -1 -p tcp -e 1040 -c 2 -a 0 -i 11 -k AGT
+ -t 0.916431200 -s 0 -d 1 -p tcp -e 1060 -c 2 -a 0 -i 11 -k RTR 
- -t 0.916431200 -s 0 -d 1 -p tcp -e 1060 -c 2 -a 0 -i 11 -k RTR
h -t 0.916431200 -s 0 -d 1 -p tcp -e 1060 -c 2 -a 0 -i 11 -k RTR
+ -t 0.916431200 -s 0 -d -1 -p tcp -e 1040 -c 2 -a 0 -i 12 -k AGT 
- -t 0.916431200 -s 0 -d -1 -p tcp -e 1040 -c 2 -a 0 -i 12 -k AGT
h -t 0.916431200 -s 0 -d -1 -p tcp -e 1040 -c 2 -a 0 -i 12 -k AGT
+ -t 0.916431200 -s 0 -d 1 -p tcp -e 1060 -c 2 -a 0 -i 12 -k RTR 
- -t 0.916431200 -s 0 -d 1 -p tcp -e 1060 -c 2 -a 0 -i 12 -k RTR
h -t 0.916431200 -s 0 -d 1 -p tcp -e 1060 -c 2 -a 0 -i 12 -k RTR
r -t 0.916720214 -s 1 -d -1 -p ACK -e 38 -c 2 -a 0 -i 0 -k MAC
+ -t 0.916930200 -s 0 -d -1 -p RTS -e 44 -c 2 -a 0 -i 0 -k MAC 
- -t 0.916930200 -s 0 -d -1 -p RTS -e 44 -c 2 -a 0 -i 0 -k MAC
h -t 0.916930200 -s 0 -d -1 -p RTS -e 44 -c 2 -a 0 -i 0 -k MAC
r -t 0.917282214 -s 1 -d -1 -p RTS -e 44 -c 2 -a 0 -i 0 -k MAC
+ -t 0.917292214 -s 1 -d -1 -p CTS -e 38 -c 2 -a 0 -i 0 -k MAC 
- -t 0.917292214 -s 1 -d -1 -p CTS -e 38 -c 2 -a 0 -i 0 -k MAC
h -t 0.917292214 -s 1 -d -1 -p CTS -e 38 -c 2 -a 0 -i 0 -k MAC
r -t 0.917596228 -s 0 -d -1 -p CTS -e 38 -c 2 -a 0 -i 0 -k MAC
+ -t 0.917606228 -s 0 -d 1 -p tcp -e 1118 -c 2 -a 0 -i 9 -k MAC 
- -t 0.917606228 -s 0 -d 1 -p tcp -e 1118 -c 2 -a 0 -i 9 -k MAC
h -t 0.917606228 -s 0 -d 1 -p tcp -e 1118 -c 2 -a 0 -i 9 -k MAC
r -t 0.926550243 -s 1 -d 1 -p tcp -e 1060 -c 2 -a 0 -i 9 -k MAC
+ -t 0.926560243 -s 1 -d -1 -p ACK -e 38 -c 2 -a 0 -i 0 -k MAC 
- -t 0.926560243 -s 1 -d -1 -p ACK -e 38 -c 2 -a 0 -i 0 -k MAC
h -t 0.926560243 -s 1 -d -1 -p ACK -e 38 -c 2 -a 0 -i 0 -k MAC
r -t 0.926575243 -s 1 -d 1 -p tcp -e 1060 -c 2 -a 0 -i 9 -k AGT
+ -t 0.926575243 -s 1 -d -1 -p ack -e 40 -c 2 -a 0 -i 13 -k AGT 
- -t 0.926575243 -s 1 -d -1 -p ack -e 40 -c 2 -a 0 -i 13 -k AGT
h -t 0.926575243 -s 1 -d -1 -p ack -e 40 -c 2 -a 0 -i 13 -k AGT
+ -t 0.926575243 -s 1 -d 0 -p ack -e 60 -c 2 -a 0 -i 13 -k RTR 
- -t 0.926575243 -s 1 -d 0 -p ack -e 60 -c 2 -a 0 -i 13 -k RTR
h -t 0.926575243 -s 1 -d 0 -p ack -e 60 -c 2 -a 0 -i 13 -k RTR
r -t 0.926864257 -s 0 -d -1 -p ACK -e 38 -c 2 -a 0 -i 0 -k MAC
+ -t 0.927274257 -s 0 -d -1 -p RTS -e 44 -c 2 -a 0 -i 0 -k MAC 
- -t 0.927274257 -s 0 -d -1 -p RTS -e 44 -c 2 -a 0 -i 0 -k MAC
h -t 0.927274257 -s 0 -d -1 -p RTS -e 44 -c 2 -a 0 -i 0 -k MAC
r -t 0.927626271 -s 1 -d -1 -p RTS -e 44 -c 2 -a 0 -i 0 -k MAC
+ -t 0.927636271 -s 1 -d -1 -p CTS -e 38 -c 2 -a 0 -i 0 -k MAC 
- -t 0.927636271 -s 1 -d -1 -p CTS -e 38 -c 2 -a 0 -i 0 -k MAC
h -t 0.927636271 -s 1 -d -1 -p CTS -e 38 -c 2 -a 0 -i 0 -k MAC
r -t 0.927940285 -s 0 -d -1 -p CTS -e 38 -c 2 -a 0 -i 0 -k MAC
+ -t 0.927950285 -s 0 -d 1 -p tcp -e 1118 -c 2 -a 0 -i 10 -k MAC 
- -t 0.927950285 -s 0 -d 1 -p tcp -e 1118 -c 2 -a 0 -i 10 -k MAC
h -t 0.927950285 -s 0 -d 1 -p tcp -e 1118 -c 2 -a 0 -i 10 -k MAC
r -t 0.936894299 -s 1 -d 1 -p tcp -e 1060 -c 2 -a 0 -i 10 -k MAC
+ -t 0.936904299 -s 1 -d -1 -p ACK -e 38 -c 2 -a 0 -i 0 -k MAC 
- -t 0.936904299 -s 1 -d -1 -p ACK -e 38 -c 2 -a 0 -i 0 -k MAC
h -t 0.936904299 -s 1 -d -1 -p ACK -e 38 -c 2 -a 0 -i 0 -k MAC
r -t 0.936919299 -s 1 -d 1 -p tcp -e 1060 -c 2 -a 0 -i 10 -k AGT
+ -t 0.936919299 -s 1 -d -1 -p ack -e 40 -c 2 -a 0 -i 14 -k AGT 
- -t 0.936919299 -s 1 -d -1 -p ack -e 40 -c 2 -a 0 -i 14 -k AGT
h -t 0.936919299 -s 1 -d -1 -p ack -e 40 -c 2 -a 0 -i 14 -k AGT
+ -t 0.936919299 -s 1 -d 0 -p ack -e 60 -c 2 -a 0 -i 14 -k RTR 
- -t 0.936919299 -s 1 -d 0 -p ack -e 60 -c 2 -a 0 -i 14 -k RTR
h -t 0.936919299 -s 1 -d 0 -p ack -e 60 -c 2 -a 0 -i 14 -k RTR
r -t 0.937208313 -s 0 -d -1 -p ACK -e 38 -c 2 -a 0 -i 0 -k MAC
+ -t 0.937278299 -s 1 -d -1 -p RTS -e 44 -c 2 -a 0 -i 0 -k MAC 
- -t 0.937278299 -s 1 -d -1 -p RTS -e 44 -c 2 -a 0 -i 0 -k MAC
h -t 0.937278299 -s 1 -d -1 -p RTS -e 44 -c 2 -a 0 -i 0 -k MAC
r -t 0.937630313 -s 0 -d -1 -p RTS -e 44 -c 2 -a 0 -i 0 -k MAC
+ -t 0.937640313 -s 0 -d -1 -p CTS -e 38 -c 2 -a 0 -i 0 -k MAC 
- -t 0.937640313 -s 0 -d -1 -p CTS -e 38 -c 2 -a 0 -i 0 -k MAC
h -t 0.937640313 -s 0 -d -1 -p CTS -e 38 -c 2 -a 0 -i 0 -k MAC
r -t 0.937944327 -s 1 -d -1 -p CTS -e 38 -c 2 -a 0 -i 0 -k MAC
+ -t 0.937954327 -s 1 -d 0 -p ack -e 118 -c 2 -a 0 -i 13 -k MAC 
- -t 0.937954327 -s 1 -d 0 -p ack -e 118 -c 2 -a 0 -i 13 -k MAC
h -t 0.937954327 -s 1 -d 0 -p ack -e 118 -c 2 -a 0 -i 13 -k MAC
r -t 0.938898342 -s 0 -d 0 -p ack -e 60 -c 2 -a 0 -i 13 -k MAC
+ -t 0.938908342 -s 0 -d -1 -p ACK -e 38 -c 2 -a 0 -i 0 -k MAC 
- -t 0.938908342 -s 0 -d -1 -p ACK -e 38 -c 2 -a 0 -i 0 -k MAC
h -t 0.938908342 -s 0 -d -1 -p ACK -e 38 -c 2 -a 0 -i 0 -k MAC
r -t 0.938923342 -s 0 -d 0 -p ack -e 60 -c 2 -a 0 -i 13 -k AGT
+ -t 0.938923342 -s 0 -d -1 -p tcp -e 1040 -c 2 -a 0 -i 15 -k AGT 
- -t 0.938923342 -s 0 -d -1 -p tcp -e 1040 -c 2 -a 0 -i 15 -k AGT
h -t 0.938923342 -s 0 -d -1 -p tcp -e 1040 -c 2 -a 0 -i 15 -k AGT
+ -t 0.938923342 -s 0 -d 1 -p tcp -e 1060 -c 2 -a 0 -i 15 -k RTR 
- -t 0.938923342 -s 0 -d 1 -p tcp -e 1060 -c 2 -a 0 -i 15 -k RTR
h -t 0.938923342 -s 0 -d 1 -p tcp -e 1060 -c 2 -a 0 -i 15 -k RTR
+ -t 0.938923342 -s 0 -d -1 -p tcp -e 1040 -c 2 -a 0 -i 16 -k AGT 
- -t 0.938923342 -s 0 -d -1 -p tcp -e 1040 -c 2 -a 0 -i 16 -k AGT
h -t 0.938923342 -s 0 -d -1 -p tcp -e 1040 -c 2 -a 0 -i 16 -k AGT
+ -t 0.938923342 -s 0 -d 1 -p tcp -e 1060 -c 2 -a 0 -i 16 -k RTR 
- -t 0.938923342 -s 0 -d 1 -p tcp -e 1060 -c 2 -a 0 -i 16 -k RTR
h -t 0.938923342 -s 0 -d 1 -p tcp -e 1060 -c 2 -a 0 -i 16 -k RTR
r -t 0.939212356 -s 1 -d -1 -p ACK -e 38 -c 2 -a 0 -i 0 -k MAC
+ -t 0.939282342 -s 0 -d -1 -p RTS -e 44 -c 2 -a 0 -i 0 -k MAC 
- -t 0.939282342 -s 0 -d -1 -p RTS -e 44 -c 2 -a 0 -i 0 -k MAC
h -t 0.939282342 -s 0 -d -1 -p RTS -e 44 -c 2 -a 0 -i 0 -k MAC
r -t 0.939634356 -s 1 -d -1 -p RTS -e 44 -c 2 -a 0 -i 0 -k MAC
+ -t 0.939644356 -s 1 -d -1 -p CTS -e 38 -c 2 -a 0 -i 0 -k MAC 
- -t 0.939644356 -s 1 -d -1 -p CTS -e 38 -c 2 -a 0 -i 0 -k MAC
h -t 0.939644356 -s 1 -d -1 -p CTS -e 38 -c 2 -a 0 -i 0 -k MAC
r -t 0.939948370 -s 0 -d -1 -p CTS -e 38 -c 2 -a 0 -i 0 -k MAC
+ -t 0.939958370 -s 0 -d 1 -p tcp -e 1118 -c 2 -a 0 -i 11 -k MAC 
- -t 0.939958370 -s 0 -d 1 -p tcp -e 1118 -c 2 -a 0 -i 11 -k MAC
h -t 0.939958370 -s 0 -d 1 -p tcp -e 1118 -c 2 -a 0 -i 11 -k MAC
r -t 0.948902384 -s 1 -d 1 -p tcp -e 1060 -c 2 -a 0 -i 11 -k MAC
+ -t 0.948912384 -s 1 -d -1 -p ACK -e 38 -c 2 -a 0 -i 0 -k MAC 
- -t 0.948912384 -s 1 -d -1 -p ACK -e 38 -c 2 -a 0 -i 0 -k MAC
h -t 0.948912384 -s 1 -d -1 -p ACK -e 38 -c 2 -a 0 -i 0 -k MAC
r -t 0.948927384 -s 1 -d 1 -p tcp -e 1060 -c 2 -a 0 -i 11 -k AGT
+ -t 0.948927384 -s 1 -d -1 -p ack -e 40 -c 2 -a 0 -i 17 -k AGT 
- -t 0.948927384 -s 1 -d -1 -p ack -e 40 -c 2 -a 0 -i 17 -k AGT
h -t 0.948927384 -s 1 -d -1 -p ack -e 40 -c 2 -a 0 -i 17 -k AGT
+ -t 0.948927384 -s 1 -d 0 -p ack -e 60 -c 2 -a 0 -i 17 -k RTR 
- -t 0.948927384 -s 1 -d 0 -p ack -e 60 -c 2 -a 0 -i 17 -k RTR
h -t 0.948927384 -s 1 -d 0 -p ack -e 60 -c 2 -a 0 -i 17 -k RTR
r -t 0.949216398 -s 0 -d -1 -p ACK -e 38 -c 2 -a 0 -i 0 -k MAC
+ -t 0.949546384 -s 1 -d -1 -p RTS -e 44 -c 2 -a 0 -i 0 -k MAC 
- -t 0.949546384 -s 1 -d -1 -p RTS -e 44 -c 2 -a 0 -i 0 -k MAC
h -t 0.949546384 -s 1 -d -1 -p RTS -e 44 -c 2 -a 0 -i 0 -k MAC
r -t 0.949898398 -s 0 -d -1 -p RTS -e 44 -c 2 -a 0 -i 0 -k MAC
+ -t 0.949908398 -s 0 -d -1 -p CTS -e 38 -c 2 -a 0 -i 0 -k MAC 
- -t 0.949908398 -s 0 -d -1 -p CTS -e 38 -c 2 -a 0 -i 0 -k MAC
h -t 0.949908398 -s 0 -d -1 -p CTS -e 38 -c 2 -a 0 -i 0 -k MAC
r -t 0.950212412 -s 1 -d -1 -p CTS -e 38 -c 2 -a 0 -i 0 -k MAC
+ -t 0.950222412 -s 1 -d 0 -p ack -e 118 -c 2 -a 0 -i 14 -k MAC 
- -t 0.950222412 -s 1 -d 0 -p ack -e 118 -c 2 -a 0 -i 14 -k MAC
h -t 0.950222412 -s 1 -d 0 -p ack -e 118 -c 2 -a 0 -i 14 -k MAC
r -t 0.951166426 -s 0 -d 0 -p ack -e 60 -c 2 -a 0 -i 14 -k MAC
+ -t 0.951176426 -s 0 -d -1 -p ACK -e 38 -c 2 -a 0 -i 0 -k MAC 
- -t 0.951176426 -s 0 -d -1 -p ACK -e 38 -c 2 -a 0 -i 0 -k MAC
h -t 0.951176426 -s 0 -d -1 -p ACK -e 38 -c 2 -a 0 -i 0 -k MAC
r -t 0.951191426 -s 0 -d 0 -p ack -e 60 -c 2 -a 0 -i 14 -k AGT
+ -t 0.951191426 -s 0 -d -1 -p tcp -e 1040 -c 2 -a 0 -i 18 -k AGT 
- -t 0.951191426 -s 0 -d -1 -p tcp -e 1040 -c 2 -a 0 -i 18 -k AGT
h -t 0.951191426 -s 0 -d -1 -p tcp -e 1040 -c 2 -a 0 -i 18 -k AGT
+ -t 0.951191426 -s 0 -d 1 -p tcp -e 1060 -c 2 -a 0 -i 18 -k RTR 
- -t 0.951191426 -s 0 -d 1 -p tcp -e 1060 -c 2 -a 0 -i 18 -k RTR
h -t 0.951191426 -s 0 -d 1 -p tcp -e 1060 -c 2 -a 0 -i 18 -k RTR
+ -t 0.951191426 -s 0 -d -1 -p tcp -e 1040 -c 2 -a 0 -i 19 -k AGT 
- -t 0.951191426 -s 0 -d -1 -p tcp -e 1040 -c 2 -a 0 -i 19 -k AGT
h -t 0.951191426 -s 0 -d -1 -p tcp -e 1040 -c 2 -a 0 -i 19 -k AGT
+ -t 0.951191426 -s 0 -d 1 -p tcp -e 1060 -c 2 -a 0 -i 19 -k RTR 
- -t 0.951191426 -s 0 -d 1 -p tcp -e 1060 -c 2 -a 0 -i 19 -k RTR
h -t 0.951191426 -s 0 -d 1 -p tcp -e 1060 -c 2 -a 0 -i 19 -k RTR
r -t 0.951480441 -s 1 -d -1 -p ACK -e 38 -c 2 -a 0 -i 0 -k MAC
+ -t 0.951610426 -s 0 -d -1 -p RTS -e 44 -c 2 -a 0 -i 0 -k MAC 
- -t 0.951610426 -s 0 -d -1 -p RTS -e 44 -c 2 -a 0 -i 0 -k MAC
h -t 0.951610426 -s 0 -d -1 -p RTS -e 44 -c 2 -a 0 -i 0 -k MAC
r -t 0.951962441 -s 1 -d -1 -p RTS -e 44 -c 2 -a 0 -i 0 -k MAC
+ -t 0.951972441 -s 1 -d -1 -p CTS -e 38 -c 2 -a 0 -i 0 -k MAC 
- -t 0.951972441 -s 1 -d -1 -p CTS -e 38 -c 2 -a 0 -i 0 -k MAC
h -t 0.951972441 -s 1 -d -1 -p CTS -e 38 -c 2 -a 0 -i 0 -k MAC
r -t 0.952276455 -s 0 -d -1 -p CTS -e 38 -c 2 -a 0 -i 0 -k MAC
+ -t 0.952286455 -s 0 -d 1 -p tcp -e 1118 -c 2 -a 0 -i 12 -k MAC 
- -t 0.952286455 -s 0 -d 1 -p tcp -e 1118 -c 2 -a 0 -i 12 -k MAC
h -t 0.952286455 -s 0 -d 1 -p tcp -e 1118 -c 2 -a 0 -i 12 -k MAC
r -t 0.961230469 -s 1 -d 1 -p tcp -e 1060 -c 2 -a 0 -i 12 -k MAC
+ -t 0.961240469 -s 1 -d -1 -p ACK -e 38 -c 2 -a 0 -i 0 -k MAC 
- -t 0.961240469 -s 1 -d -1 -p ACK -e 38 -c 2 -a 0 -i 0 -k MAC
h -t 0.961240469 -s 1 -d -1 -p ACK -e 38 -c 2 -a 0 -i 0 -k MAC
r -t 0.961255469 -s 1 -d 1 -p tcp -e 1060 -c 2 -a 0 -i 12 -k AGT
+ -t 0.961255469 -s 1 -d -1 -p ack -e 40 -c 2 -a 0 -i 20 -k AGT 
- -t 0.961255469 -s 1 -d -1 -p ack -e 40 -c 2 -a 0 -i 20 -k AGT
h -t 0.961255469 -s 1 -d -1 -p ack -e 40 -c 2 -a 0 -i 20 -k AGT
+ -t 0.961255469 -s 1 -d 0 -p ack -e 60 -c 2 -a 0 -i 20 -k RTR 
- -t 0.961255469 -s 1 -d 0 -p ack -e 60 -c 2 -a 0 -i 20 -k RTR
h -t 0.961255469 -s 1 -d 0 -p ack -e 60 -c 2 -a 0 -i 20 -k RTR
r -t 0.961544483 -s 0 -d -1 -p ACK -e 38 -c 2 -a 0 -i 0 -k MAC
+ -t 0.961674469 -s 1 -d -1 -p RTS -e 44 -c 2 -a 0 -i 0 -k MAC 
- -t 0.961674469 -s 1 -d -1 -p RTS -e 44 -c 2 -a 0 -i 0 -k MAC
h -t 0.961674469 -s 1 -d -1 -p RTS -e 44 -c 2 -a 0 -i 0 -k MAC
+ -t 0.961674483 -s 0 -d -1 -p RTS -e 44 -c 2 -a 0 -i 0 -k MAC 
- -t 0.961674483 -s 0 -d -1 -p RTS -e 44 -c 2 -a 0 -i 0 -k MAC
h -t 0.961674483 -s 0 -d -1 -p RTS -e 44 -c 2 -a 0 -i 0 -k MAC
+ -t 0.962440483 -s 0 -d -1 -p RTS -e 44 -c 2 -a 0 -i 0 -k MAC 
- -t 0.962440483 -s 0 -d -1 -p RTS -e 44 -c 2 -a 0 -i 0 -k MAC
h -t 0.962440483 -s 0 -d -1 -p RTS -e 44 -c 2 -a 0 -i 0 -k MAC
r -t 0.962792497 -s 1 -d -1 -p RTS -e 44 -c 2 -a 0 -i 0 -k MAC
+ -t 0.962802497 -s 1 -d -1 -p CTS -e 38 -c 2 -a 0 -i 0 -k MAC 
- -t 0.962802497 -s 1 -d -1 -p CTS -e 38 -c 2 -a 0 -i 0 -k MAC
h -t 0.962802497 -s 1 -d -1 -p CTS -e 38 -c 2 -a 0 -i 0 -k MAC
r -t 0.963106511 -s 0 -d -1 -p CTS -e 38 -c 2 -a 0 -i 0 -k MAC
+ -t 0.963116511 -s 0 -d 1 -p tcp -e 1118 -c 2 -a 0 -i 15 -k MAC 
- -t 0.963116511 -s 0 -d 1 -p tcp -e 1118 -c 2 -a 0 -i 15 -k MAC
h -t 0.963116511 -s 0 -d 1 -p tcp -e 1118 -c 2 -a 0 -i 15 -k MAC
r -t 0.972060525 -s 1 -d 1 -p tcp -e 1060 -c 2 -a 0 -i 15 -k MAC
+ -t 0.972070525 -s 1 -d -1 -p ACK -e 38 -c 2 -a 0 -i 0 -k MAC 
- -t 0.972070525 -s 1 -d -1 -p ACK -e 38 -c 2 -a 0 -i 0 -k MAC
h -t 0.972070525 -s 1 -d -1 -p ACK -e 38 -c 2 -a 0 -i 0 -k MAC
r -t 0.972085525 -s 1 -d 1 -p tcp -e 1060 -c 2 -a 0 -i 15 -k AGT
+ -t 0.972085525 -s 1 -d -1 -p ack -e 40 -c 2 -a 0 -i 21 -k AGT 
- -t 0.972085525 -s 1 -d -1 -p ack -e 40 -c 2 -a 0 -i 21 -k AGT
h -t 0.972085525 -s 1 -d -1 -p ack -e 40 -c 2 -a 0 -i 21 -k AGT
+ -t 0.972085525 -s 1 -d 0 -p ack -e 60 -c 2 -a 0 -i 21 -k RTR 
- -t 0.972085525 -s 1 -d 0 -p ack -e 60 -c 2 -a 0 -i 21 -k RTR
h -t 0.972085525 -s 1 -d 0 -p ack -e 60 -c 2 -a 0 -i 21 -k RTR
r -t 0.972374540 -s 0 -d -1 -p ACK -e 38 -c 2 -a 0 -i 0 -k MAC
+ -t 0.972524540 -s 0 -d -1 -p RTS -e 44 -c 2 -a 0 -i 0 -k MAC 
- -t 0.972524540 -s 0 -d -1 -p RTS -e 44 -c 2 -a 0 -i 0 -k MAC
h -t 0.972524540 -s 0 -d -1 -p RTS -e 44 -c 2 -a 0 -i 0 -k MAC
r -t 0.972876554 -s 1 -d -1 -p RTS -e 44 -c 2 -a 0 -i 0 -k MAC
+ -t 0.972886554 -s 1 -d -1 -p CTS -e 38 -c 2 -a 0 -i 0 -k MAC 
- -t 0.972886554 -s 1 -d -1 -p CTS -e 38 -c 2 -a 0 -i 0 -k MAC
h -t 0.972886554 -s 1 -d -1 -p CTS -e 38 -c 2 -a 0 -i 0 -k MAC
r -t 0.973190568 -s 0 -d -1 -p CTS -e 38 -c 2 -a 0 -i 0 -k MAC
+ -t 0.973200568 -s 0 -d 1 -p tcp -e 1118 -c 2 -a 0 -i 16 -k MAC 
- -t 0.973200568 -s 0 -d 1 -p tcp -e 1118 -c 2 -a 0 -i 16 -k MAC
h -t 0.973200568 -s 0 -d 1 -p tcp -e 1118 -c 2 -a 0 -i 16 -k MAC
r -t 0.982144582 -s 1 -d 1 -p tcp -e 1060 -c 2 -a 0 -i 16 -k MAC
+ -t 0.982154582 -s 1 -d -1 -p ACK -e 38 -c 2 -a 0 -i 0 -k MAC 
- -t 0.982154582 -s 1 -d -1 -p ACK -e 38 -c 2 -a 0 -i 0 -k MAC
h -t 0.982154582 -s 1 -d -1 -p ACK -e 38 -c 2 -a 0 -i 0 -k MAC
r -t 0.982169582 -s 1 -d 1 -p tcp -e 1060 -c 2 -a 0 -i 16 -k AGT
+ -t 0.982169582 -s 1 -d -1 -p ack -e 40 -c 2 -a 0 -i 22 -k AGT 
- -t 0.982169582 -s 1 -d -1 -p ack -e 40 -c 2 -a 0 -i 22 -k AGT
h -t 0.982169582 -s 1 -d -1 -p ack -e 40 -c 2 -a 0 -i 22 -k AGT
+ -t 0.982169582 -s 1 -d 0 -p ack -e 60 -c 2 -a 0 -i 22 -k RTR 
- -t 0.982169582 -s 1 -d 0 -p ack -e 60 -c 2 -a 0 -i 22 -k RTR
h -t 0.982169582 -s 1 -d 0 -p ack -e 60 -c 2 -a 0 -i 22 -k RTR
r -t 0.982458596 -s 0 -d -1 -p ACK -e 38 -c 2 -a 0 -i 0 -k MAC
+ -t 0.983028596 -s 0 -d -1 -p RTS -e 44 -c 2 -a 0 -i 0 -k MAC 
- -t 0.983028596 -s 0 -d -1 -p RTS -e 44 -c 2 -a 0 -i 0 -k MAC
h -t 0.983028596 -s 0 -d -1 -p RTS -e 44 -c 2 -a 0 -i 0 -k MAC
r -t 0.983380610 -s 1 -d -1 -p RTS -e 44 -c 2 -a 0 -i 0 -k MAC
+ -t 0.983390610 -s 1 -d -1 -p CTS -e 38 -c 2 -a 0 -i 0 -k MAC 
- -t 0.983390610 -s 1 -d -1 -p CTS -e 38 -c 2 -a 0 -i 0 -k MAC
h -t 0.983390610 -s 1 -d -1 -p CTS -e 38 -c 2 -a 0 -i 0 -k MAC
r -t 0.983694624 -s 0 -d -1 -p CTS -e 38 -c 2 -a 0 -i 0 -k MAC
+ -t 0.983704624 -s 0 -d 1 -p tcp -e 1118 -c 2 -a 0 -i 18 -k MAC 
- -t 0.983704624 -s 0 -d 1 -p tcp -e 1118 -c 2 -a 0 -i 18 -k MAC
h -t 0.983704624 -s 0 -d 1 -p tcp -e 1118 -c 2 -a 0 -i 18 -k MAC
r -t 0.992648639 -s 1 -d 1 -p tcp -e 1060 -c 2 -a 0 -i 18 -k MAC
+ -t 0.992658639 -s 1 -d -1 -p ACK -e 38 -c 2 -a 0 -i 0 -k MAC 
- -t 0.992658639 -s 1 -d -1 -p ACK -e 38 -c 2 -a 0 -i 0 -k MAC
h -t 0.992658639 -s 1 -d -1 -p ACK -e 38 -c 2 -a 0 -i 0 -k MAC
r -t 0.992673639 -s 1 -d 1 -p tcp -e 1060 -c 2 -a 0 -i 18 -k AGT
+ -t 0.992673639 -s 1 -d -1 -p ack -e 40 -c 2 -a 0 -i 23 -k AGT 
- -t 0.992673639 -s 1 -d -1 -p ack -e 40 -c 2 -a 0 -i 23 -k AGT
h -t 0.992673639 -s 1 -d -1 -p ack -e 40 -c 2 -a 0 -i 23 -k AGT
+ -t 0.992673639 -s 1 -d 0 -p ack -e 60 -c 2 -a 0 -i 23 -k RTR 
- -t 0.992673639 -s 1 -d 0 -p ack -e 60 -c 2 -a 0 -i 23 -k RTR
h -t 0.992673639 -s 1 -d 0 -p ack -e 60 -c 2 -a 0 -i 23 -k RTR
r -t 0.992962653 -s 0 -d -1 -p ACK -e 38 -c 2 -a 0 -i 0 -k MAC
+ -t 0.993232653 -s 0 -d -1 -p RTS -e 44 -c 2 -a 0 -i 0 -k MAC 
- -t 0.993232653 -s 0 -d -1 -p RTS -e 44 -c 2 -a 0 -i 0 -k MAC
h -t 0.993232653 -s 0 -d -1 -p RTS -e 44 -c 2 -a 0 -i 0 -k MAC
r -t 0.993584667 -s 1 -d -1 -p RTS -e 44 -c 2 -a 0 -i 0 -k MAC
+ -t 0.993594667 -s 1 -d -1 -p CTS -e 38 -c 2 -a 0 -i 0 -k MAC 
- -t 0.993594667 -s 1 -d -1 -p CTS -e 38 -c 2 -a 0 -i 0 -k MAC
h -t 0.993594667 -s 1 -d -1 -p CTS -e 38 -c 2 -a 0 -i 0 -k MAC
r -t 0.993898681 -s 0 -d -1 -p CTS -e 38 -c 2 -a 0 -i 0 -k MAC
+ -t 0.993908681 -s 0 -d 1 -p tcp -e 1118 -c 2 -a 0 -i 19 -k MAC 
- -t 0.993908681 -s 0 -d 1 -p tcp -e 1118 -c 2 -a 0 -i 19 -k MAC
h -t 0.993908681 -s 0 -d 1 -p tcp -e 1118 -c 2 -a 0 -i 19 -k MAC
r -t 1.002852695 -s 1 -d 1 -p tcp -e 1060 -c 2 -a 0 -i 19 -k MAC
+ -t 1.002862695 -s 1 -d -1 -p ACK -e 38 -c 2 -a 0 -i 0 -k MAC 
- -t 1.002862695 -s 1 -d -1 -p ACK -e 38 -c 2 -a 0 -i 0 -k MAC
h -t 1.002862695 -s 1 -d -1 -p ACK -e 38 -c 2 -a 0 -i 0 -k MAC
r -t 1.002877695 -s 1 -d 1 -p tcp -e 1060 -c 2 -a 0 -i 19 -k AGT
+ -t 1.002877695 -s 1 -d -1 -p ack -e 40 -c 2 -a 0 -i 24 -k AGT 
- -t 1.002877695 -s 1 -d -1 -p ack -e 40 -c 2 -a 0 -i 24 -k AGT