s 0.184410103 _0_ RTR  --- 0 message 32 [0 0 0 0] [energy 3.200000 ei 0.000 es 0.000 et 0.000 er 0.000] ------- [0:255 -1:255 32 0] 
s 0.184845103 _0_ MAC  --- 0 message 90 [0 ffffffff 0 800] [energy 3.200000 ei 0.000 es 0.000 et 0.000 er 0.000] ------- [0:255 -1:255 32 0] 
N -t 0.184845 -n 1 -e 3.181443
N -t 0.184845 -n 2 -e 3.181443
N -t 0.184845 -n 3 -e 3.181443
r 0.185565117 _1_ MAC  --- 0 message 32 [0 ffffffff 0 800] [energy 3.181443 ei 0.018 es 0.000 et 0.000 er 0.000] ------- [0:255 -1:255 32 0] 
r 0.185565164 _2_ MAC  --- 0 message 32 [0 ffffffff 0 800] [energy 3.181443 ei 0.018 es 0.000 et 0.000 er 0.000] ------- [0:255 -1:255 32 0] 
r 0.185565209 _3_ MAC  --- 0 message 32 [0 ffffffff 0 800] [energy 3.181443 ei 0.018 es 0.000 et 0.000 er 0.000] ------- [0:255 -1:255 32 0] 
r 0.185590117 _1_ RTR  --- 0 message 32 [0 ffffffff 0 800] [energy 3.181443 ei 0.018 es 0.000 et 0.000 er 0.000] ------- [0:255 -1:255 32 0] 
r 0.185590164 _2_ RTR  --- 0 message 32 [0 ffffffff 0 800] [energy 3.181443 ei 0.018 es 0.000 et 0.000 er 0.000] ------- [0:255 -1:255 32 0] 
r 0.185590209 _3_ RTR  --- 0 message 32 [0 ffffffff 0 800] [energy 3.181443 ei 0.018 es 0.000 et 0.000 er 0.000] ------- [0:255 -1:255 32 0] 
s 0.500000000 _0_ AGT  --- 1 tcp 40 [0 0 0 0] [energy 3.181299 ei 0.018 es 0.000 et 0.000 er 0.000] ------- [0:0 1:0 32 0] [0 0] 0 0
r 0.500000000 _0_ RTR  --- 1 tcp 40 [0 0 0 0] [energy 3.181299 ei 0.018 es 0.000 et 0.000 er 0.000] ------- [0:0 1:0 32 0] [0 0] 0 0
s 0.634286779 _3_ RTR  --- 2 message 32 [0 0 0 0] [energy 3.181443 ei 0.018 es 0.000 et 0.000 er 0.000] ------- [3:255 -1:255 32 0] 
s 0.634901779 _3_ MAC  --- 2 message 90 [0 ffffffff 3 800] [energy 3.181443 ei 0.018 es 0.000 et 0.000 er 0.000] ------- [3:255 -1:255 32 0] 
N -t 0.634902 -n 2 -e 3.136438
N -t 0.634902 -n 1 -e 3.136438
N -t 0.634902 -n 0 -e 3.136294
r 0.635621825 _2_ MAC  --- 2 message 32 [0 ffffffff 3 800] [energy 3.136438 ei 0.063 es 0.000 et 0.000 er 0.000] ------- [3:255 -1:255 32 0] 
r 0.635621870 _1_ MAC  --- 2 message 32 [0 ffffffff 3 800] [energy 3.136438 ei 0.063 es 0.000 et 0.000 er 0.000] ------- [3:255 -1:255 32 0] 
r 0.635621884 _0_ MAC  --- 2 message 32 [0 ffffffff 3 800] [energy 3.136294 ei 0.063 es 0.000 et 0.000 er 0.000] ------- [3:255 -1:255 32 0] 
r 0.635646825 _2_ RTR  --- 2 message 32 [0 ffffffff 3 800] [energy 3.136438 ei 0.063 es 0.000 et 0.000 er 0.000] ------- [3:255 -1:255 32 0] 
r 0.635646870 _1_ RTR  --- 2 message 32 [0 ffffffff 3 800] [energy 3.136438 ei 0.063 es 0.000 et 0.000 er 0.000] ------- [3:255 -1:255 32 0] 
r 0.635646884 _0_ RTR  --- 2 message 32 [0 ffffffff 3 800] [energy 3.136294 ei 0.063 es 0.000 et 0.000 er 0.000] ------- [3:255 -1:255 32 0] 
s 0.883484847 _1_ RTR  --- 3 message 32 [0 0 0 0] [energy 3.136438 ei 0.063 es 0.000 et 0.000 er 0.000] ------- [1:255 -1:255 32 0] 
s 0.883719847 _1_ MAC  --- 3 message 90 [0 ffffffff 1 800] [energy 3.136438 ei 0.063 es 0.000 et 0.000 er 0.000] ------- [1:255 -1:255 32 0] 
N -t 0.883720 -n 0 -e 3.111412
N -t 0.883720 -n 2 -e 3.111556
N -t 0.883720 -n 3 -e 3.111412
r 0.884439861 _0_ MAC  --- 3 message 32 [0 ffffffff 1 800] [energy 3.111412 ei 0.088 es 0.000 et 0.000 er 0.000] ------- [1:255 -1:255 32 0] 
r 0.884439894 _2_ MAC  --- 3 message 32 [0 ffffffff 1 800] [energy 3.111556 ei 0.088 es 0.000 et 0.000 er 0.000] ------- [1:255 -1:255 32 0] 
r 0.884439938 _3_ MAC  --- 3 message 32 [0 ffffffff 1 800] [energy 3.111412 ei 0.088 es 0.000 et 0.000 er 0.000] ------- [1:255 -1:255 32 0] 
r 0.884464861 _0_ RTR  --- 3 message 32 [0 ffffffff 1 800] [energy 3.111412 ei 0.088 es 0.000 et 0.000 er 0.000] ------- [1:255 -1:255 32 0] 
s 0.884464861 _0_ RTR  --- 1 tcp 80 [0 0 0 0] [energy 3.111412 ei 0.088 es 0.000 et 0.000 er 0.000] ------- [0:0 1:0 32 1] [0 0] 0 0
r 0.884464894 _2_ RTR  --- 3 message 32 [0 ffffffff 1 800] [energy 3.111556 ei 0.088 es 0.000 et 0.000 er 0.000] ------- [1:255 -1:255 32 0] 
r 0.884464938 _3_ RTR  --- 3 message 32 [0 ffffffff 1 800] [energy 3.111412 ei 0.088 es 0.000 et 0.000 er 0.000] ------- [1:255 -1:255 32 0] 
s 0.884859861 _0_ MAC  --- 0 ARP 86 [0 ffffffff 0 806] [energy 3.111412 ei 0.088 es 0.000 et 0.000 er 0.000] ------- [REQUEST 0/0 0/1]
N -t 0.884860 -n 1 -e 3.111301
N -t 0.884860 -n 2 -e 3.111445
N -t 0.884860 -n 3 -e 3.111301
r 0.885547875 _1_ MAC  --- 0 ARP 28 [0 ffffffff 0 806] [energy 3.111301 ei 0.088 es 0.000 et 0.000 er 0.000] ------- [REQUEST 0/0 0/1]
r 0.885547922 _2_ MAC  --- 0 ARP 28 [0 ffffffff 0 806] [energy 3.111445 ei 0.088 es 0.000 et 0.000 er 0.000] ------- [REQUEST 0/0 0/1]
r 0.885547966 _3_ MAC  --- 0 ARP 28 [0 ffffffff 0 806] [energy 3.111301 ei 0.088 es 0.000 et 0.000 er 0.000] ------- [REQUEST 0/0 0/1]
s 0.885717875 _1_ MAC  --- 0 RTS 44 [52e 0 1 0] [energy 3.111301 ei 0.088 es 0.000 et 0.000 er 0.000] 
N -t 0.885718 -n 0 -e 3.111111
N -t 0.885718 -n 2 -e 3.111393
N -t 0.885718 -n 3 -e 3.111249
r 0.886069889 _0_ MAC  --- 0 RTS 44 [52e 0 1 0] [energy 3.111111 ei 0.088 es 0.000 et 0.000 er 0.000] 
s 0.886079889 _0_ MAC  --- 0 CTS 38 [3f4 1 0 0] [energy 3.111111 ei 0.088 es 0.000 et 0.000 er 0.000] 
N -t 0.886080 -n 1 -e 3.111147
N -t 0.886080 -n 2 -e 3.111362
N -t 0.886080 -n 3 -e 3.111218
r 0.886383903 _1_ MAC  --- 0 CTS 38 [3f4 1 0 0] [energy 3.111147 ei 0.088 es 0.000 et 0.000 er 0.000] 
s 0.886393903 _1_ MAC  --- 0 ARP 86 [13a 0 1 806] [energy 3.111147 ei 0.088 es 0.000 et 0.000 er 0.000] ------- [REPLY 1/1 0/0]
N -t 0.886394 -n 0 -e 3.110949
N -t 0.886394 -n 2 -e 3.111292
N -t 0.886394 -n 3 -e 3.111148
r 0.887081917 _0_ MAC  --- 0 ARP 28 [13a 0 1 806] [energy 3.110949 ei 0.088 es 0.000 et 0.001 er 0.000] ------- [REPLY 1/1 0/0]
s 0.887091917 _0_ MAC  --- 0 ACK 38 [0 1 0 0] [energy 3.110949 ei 0.088 es 0.000 et 0.001 er 0.000] 
N -t 0.887092 -n 1 -e 3.110908
N -t 0.887092 -n 2 -e 3.111260
N -t 0.887092 -n 3 -e 3.111116
r 0.887395931 _1_ MAC  --- 0 ACK 38 [0 1 0 0] [energy 3.110908 ei 0.088 es 0.000 et 0.001 er 0.000] 
s 0.887645917 _0_ MAC  --- 0 RTS 44 [6ce 1 0 0] [energy 3.110857 ei 0.088 es 0.000 et 0.001 er 0.000] 
N -t 0.887646 -n 1 -e 3.110848
N -t 0.887646 -n 2 -e 3.111200
N -t 0.887646 -n 3 -e 3.111056
r 0.887997931 _1_ MAC  --- 0 RTS 44 [6ce 1 0 0] [energy 3.110848 ei 0.088 es 0.000 et 0.001 er 0.000] 
s 0.888007931 _1_ MAC  --- 0 CTS 38 [594 0 0 0] [energy 3.110848 ei 0.088 es 0.000 et 0.001 er 0.000] 
N -t 0.888008 -n 0 -e 3.110695
N -t 0.888008 -n 2 -e 3.111169
N -t 0.888008 -n 3 -e 3.111025
r 0.888311946 _0_ MAC  --- 0 CTS 38 [594 0 0 0] [energy 3.110695 ei 0.088 es 0.000 et 0.001 er 0.000] 
s 0.888321946 _0_ MAC  --- 1 tcp 138 [13a 1 0 800] [energy 3.110695 ei 0.088 es 0.000 et 0.001 er 0.000] ------- [0:0 1:0 32 1] [0 0] 0 0
N -t 0.888322 -n 1 -e 3.110645
N -t 0.888322 -n 2 -e 3.111057
N -t 0.888322 -n 3 -e 3.110913
r 0.889425960 _1_ MAC  --- 1 tcp 80 [13a 1 0 800] [energy 3.110645 ei 0.088 es 0.000 et 0.001 er 0.000] ------- [0:0 1:0 32 1] [0 0] 1 0
s 0.889435960 _1_ MAC  --- 0 ACK 38 [0 0 0 0] [energy 3.110645 ei 0.088 es 0.000 et 0.001 er 0.000] 
N -t 0.889436 -n 0 -e 3.110332
N -t 0.889436 -n 2 -e 3.111026
N -t 0.889436 -n 3 -e 3.110882
r 0.889450960 _1_ AGT  --- 1 tcp 80 [13a 1 0 800] [energy 3.110552 ei 0.088 es 0.000 et 0.001 er 0.000] ------- [0:0 1:0 32 1] [0 0] 1 0
s 0.889450960 _1_ AGT  --- 4 ack 40 [0 0 0 0] [energy 3.110552 ei 0.088 es 0.000 et 0.001 er 0.000] ------- [1:0 0:0 32 0] [0 0] 0 0
r 0.889450960 _1_ RTR  --- 4 ack 40 [0 0 0 0] [energy 3.110552 ei 0.088 es 0.000 et 0.001 er 0.000] ------- [1:0 0:0 32 0] [0 0] 0 0
s 0.889450960 _1_ RTR  --- 4 ack 60 [0 0 0 0] [energy 3.110552 ei 0.088 es 0.000 et 0.001 er 0.000] ------- [1:0 0:0 32 0] [0 0] 0 0
r 0.889739974 _0_ MAC  --- 0 ACK 38 [0 0 0 0] [energy 3.110332 ei 0.088 es 0.000 et 0.001 er 0.000] 
s 0.890009960 _1_ MAC  --- 0 RTS 44 [62e 0 1 0] [energy 3.110552 ei 0.088 es 0.000 et 0.001 er 0.000] 
N -t 0.890010 -n 0 -e 3.110269
N -t 0.890010 -n 2 -e 3.110964
N -t 0.890010 -n 3 -e 3.110820
r 0.890361974 _0_ MAC  --- 0 RTS 44 [62e 0 1 0] [energy 3.110269 ei 0.088 es 0.000 et 0.001 er 0.000] 
s 0.890371974 _0_ MAC  --- 0 CTS 38 [4f4 1 0 0] [energy 3.110269 ei 0.088 es 0.000 et 0.001 er 0.000] 
N -t 0.890372 -n 1 -e 3.110388
N -t 0.890372 -n 2 -e 3.110932
N -t 0.890372 -n 3 -e 3.110788
r 0.890675988 _1_ MAC  --- 0 CTS 38 [4f4 1 0 0] [energy 3.110388 ei 0.088 es 0.000 et 0.001 er 0.000] 
s 0.890685988 _1_ MAC  --- 4 ack 118 [13a 0 1 800] [energy 3.110388 ei 0.088 es 0.000 et 0.001 er 0.000] ------- [1:0 0:0 32 0] [0 0] 0 0
N -t 0.890686 -n 0 -e 3.110082
N -t 0.890686 -n 2 -e 3.110837
N -t 0.890686 -n 3 -e 3.110693
r 0.891630002 _0_ MAC  --- 4 ack 60 [13a 0 1 800] [energy 3.110082 ei 0.088 es 0.000 et 0.001 er 0.000] ------- [1:0 0:0 32 0] [0 0] 1 0
s 0.891640002 _0_ MAC  --- 0 ACK 38 [0 1 0 0] [energy 3.110082 ei 0.088 es 0.000 et 0.001 er 0.000] 
N -t 0.891640 -n 1 -e 3.110073
N -t 0.891640 -n 2 -e 3.110806
N -t 0.891640 -n 3 -e 3.110662
r 0.891655002 _0_ AGT  --- 4 ack 60 [13a 0 1 800] [energy 3.109990 ei 0.088 es 0.000 et 0.001 er 0.000] ------- [1:0 0:0 32 0] [0 0] 1 0
s 0.891655002 _0_ AGT  --- 5 tcp 1040 [0 0 0 0] [energy 3.109990 ei 0.088 es 0.000 et 0.001 er 0.000] ------- [0:0 1:0 32 0] [1 0] 0 0
r 0.891655002 _0_ RTR  --- 5 tcp 1040 [0 0 0 0] [energy 3.109990 ei 0.088 es 0.000 et 0.001 er 0.000] ------- [0:0 1:0 32 0] [1 0] 0 0
s 0.891655002 _0_ RTR  --- 5 tcp 1060 [0 0 0 0] [energy 3.109990 ei 0.088 es 0.000 et 0.001 er 0.000] ------- [0:0 1:0 32 1] [1 0] 0 0
s 0.891655002 _0_ AGT  --- 6 tcp 1040 [0 0 0 0] [energy 3.109990 ei 0.088 es 0.000 et 0.001 er 0.000] ------- [0:0 1:0 32 0] [2 0] 0 0
r 0.891655002 _0_ RTR  --- 6 tcp 1040 [0 0 0 0] [energy 3.109990 ei 0.088 es 0.000 et 0.001 er 0.000] ------- [0:0 1:0 32 0] [2 0] 0 0
s 0.891655002 _0_ RTR  --- 6 tcp 1060 [0 0 0 0] [energy 3.109990 ei 0.088 es 0.000 et 0.001 er 0.000] ------- [0:0 1:0 32 1] [2 0] 0 0
r 0.891944016 _1_ MAC  --- 0 ACK 38 [0 1 0 0] [energy 3.110073 ei 0.088 es 0.000 et 0.001 er 0.000] 
s 0.892234002 _0_ MAC  --- 0 RTS 44 [256e 1 0 0] [energy 3.109990 ei 0.088 es 0.000 et 0.001 er 0.000] 
N -t 0.892234 -n 1 -e 3.110009
N -t 0.892234 -n 2 -e 3.110741
N -t 0.892234 -n 3 -e 3.110597
r 0.892586016 _1_ MAC  --- 0 RTS 44 [256e 1 0 0] [energy 3.110009 ei 0.088 es 0.000 et 0.001 er 0.001] 
s 0.892596016 _1_ MAC  --- 0 CTS 38 [2434 0 0 0] [energy 3.110009 ei 0.088 es 0.000 et 0.001 er 0.001] 
N -t 0.892596 -n 0 -e 3.109824
N -t 0.892596 -n 2 -e 3.110710
N -t 0.892596 -n 3 -e 3.110566
r 0.892900030 _0_ MAC  --- 0 CTS 38 [2434 0 0 0] [energy 3.109824 ei 0.088 es 0.000 et 0.001 er 0.000] 
s 0.892910030 _0_ MAC  --- 5 tcp 1118 [13a 1 0 800] [energy 3.109824 ei 0.088 es 0.000 et 0.001 er 0.000] ------- [0:0 1:0 32 1] [1 0] 0 0
N -t 0.892910 -n 1 -e 3.109021
N -t 0.892910 -n 2 -e 3.109815
N -t 0.892910 -n 3 -e 3.109671
r 0.901854045 _1_ MAC  --- 5 tcp 1060 [13a 1 0 800] [energy 3.109021 ei 0.088 es 0.000 et 0.001 er 0.001] ------- [0:0 1:0 32 1] [1 0] 1 0
s 0.901864045 _1_ MAC  --- 0 ACK 38 [0 0 0 0] [energy 3.109021 ei 0.088 es 0.000 et 0.001 er 0.001] 
N -t 0.901864 -n 0 -e 3.107108
N -t 0.901864 -n 2 -e 3.109783
N -t 0.901864 -n 3 -e 3.109639
r 0.901879045 _1_ AGT  --- 5 tcp 1060 [13a 1 0 800] [energy 3.108929 ei 0.088 es 0.000 et 0.001 er 0.001] ------- [0:0 1:0 32 1] [1 0] 1 0
s 0.901879045 _1_ AGT  --- 7 ack 40 [0 0 0 0] [energy 3.108929 ei 0.088 es 0.000 et 0.001 er 0.001] ------- [1:0 0:0 32 0] [1 0] 0 0
r 0.901879045 _1_ RTR  --- 7 ack 40 [0 0 0 0] [energy 3.108929 ei 0.088 es 0.000 et 0.001 er 0.001] ------- [1:0 0:0 32 0] [1 0] 0 0
s 0.901879045 _1_ RTR  --- 7 ack 60 [0 0 0 0] [energy 3.108929 ei 0.088 es 0.000 et 0.001 er 0.001] ------- [1:0 0:0 32 0] [1 0] 0 0
r 0.902168059 _0_ MAC  --- 0 ACK 38 [0 0 0 0] [energy 3.107108 ei 0.088 es 0.000 et 0.004 er 0.000] 
s 0.902398059 _0_ MAC  --- 0 RTS 44 [256e 1 0 0] [energy 3.107108 ei 0.088 es 0.000 et 0.004 er 0.000] 
N -t 0.902398 -n 1 -e 3.108871
N -t 0.902398 -n 2 -e 3.109725
N -t 0.902398 -n 3 -e 3.109581
r 0.902750073 _1_ MAC  --- 0 RTS 44 [256e 1 0 0] [energy 3.108871 ei 0.088 es 0.000 et 0.001 er 0.001] 
s 0.902760073 _1_ MAC  --- 0 CTS 38 [2434 0 0 0] [energy 3.108871 ei 0.088 es 0.000 et 0.001 er 0.001] 
N -t 0.902760 -n 0 -e 3.106948
N -t 0.902760 -n 2 -e 3.109694
N -t 0.902760 -n 3 -e 3.109550
r 0.903064087 _0_ MAC  --- 0 CTS 38 [2434 0 0 0] [energy 3.106948 ei 0.088 es 0.000 et 0.004 er 0.001] 
s 0.903074087 _0_ MAC  --- 6 tcp 1118 [13a 1 0 800] [energy 3.106948 ei 0.088 es 0.000 et 0.004 er 0.001] ------- [0:0 1:0 32 1] [2 0] 0 0
N -t 0.903074 -n 1 -e 3.107883
N -t 0.903074 -n 2 -e 3.108798
N -t 0.903074 -n 3 -e 3.108654
r 0.912018101 _1_ MAC  --- 6 tcp 1060 [13a 1 0 800] [energy 3.107883 ei 0.088 es 0.000 et 0.001 er 0.002] ------- [0:0 1:0 32 1] [2 0] 1 0
s 0.912028101 _1_ MAC  --- 0 ACK 38 [0 0 0 0] [energy 3.107883 ei 0.088 es 0.000 et 0.001 er 0.002] 
N -t 0.912028 -n 0 -e 3.104232
N -t 0.912028 -n 2 -e 3.108767
N -t 0.912028 -n 3 -e 3.108623
r 0.912043101 _1_ AGT  --- 6 tcp 1060 [13a 1 0 800] [energy 3.107791 ei 0.088 es 0.000 et 0.001 er 0.002] ------- [0:0 1:0 32 1] [2 0] 1 0
s 0.912043101 _1_ AGT  --- 8 ack 40 [0 0 0 0] [energy 3.107791 ei 0.088 es 0.000 et 0.001 er 0.002] ------- [1:0 0:0 32 0] [2 0] 0 0
r 0.912043101 _1_ RTR  --- 8 ack 40 [0 0 0 0] [energy 3.107791 ei 0.088 es 0.000 et 0.001 er 0.002] ------- [1:0 0:0 32 0] [2 0] 0 0
s 0.912043101 _1_ RTR  --- 8 ack 60 [0 0 0 0] [energy 3.107791 ei 0.088 es 0.000 et 0.001 er 0.002] ------- [1:0 0:0 32 0] [2 0] 0 0
r 0.912332115 _0_ MAC  --- 0 ACK 38 [0 0 0 0] [energy 3.104232 ei 0.088 es 0.000 et 0.007 er 0.001] 
s 0.912402101 _1_ MAC  --- 0 RTS 44 [62e 0 1 0] [energy 3.107791 ei 0.088 es 0.000 et 0.001 er 0.002] 
N -t 0.912402 -n 0 -e 3.104190
N -t 0.912402 -n 2 -e 3.108725
N -t 0.912402 -n 3 -e 3.108581
r 0.912754115 _0_ MAC  --- 0 RTS 44 [62e 0 1 0] [energy 3.104190 ei 0.088 es 0.000 et 0.007 er 0.001] 
s 0.912764115 _0_ MAC  --- 0 CTS 38 [4f4 1 0 0] [energy 3.104190 ei 0.088 es 0.000 et 0.007 er 0.001] 
N -t 0.912764 -n 1 -e 3.107647
N -t 0.912764 -n 2 -e 3.108693
N -t 0.912764 -n 3 -e 3.108549
r 0.913068129 _1_ MAC  --- 0 CTS 38 [4f4 1 0 0] [energy 3.107647 ei 0.088 es 0.000 et 0.002 er 0.002] 
s 0.913078129 _1_ MAC  --- 7 ack 118 [13a 0 1 800] [energy 3.107647 ei 0.088 es 0.000 et 0.002 er 0.002] ------- [1:0 0:0 32 0] [1 0] 0 0
N -t 0.913078 -n 0 -e 3.104003
N -t 0.913078 -n 2 -e 3.108598
N -t 0.913078 -n 3 -e 3.108454
r 0.914022144 _0_ MAC  --- 7 ack 60 [13a 0 1 800] [energy 3.104003 ei 0.088 es 0.000 et 0.007 er 0.001] ------- [1:0 0:0 32 0] [1 0] 1 0
s 0.914032144 _0_ MAC  --- 0 ACK 38 [0 1 0 0] [energy 3.104003 ei 0.088 es 0.000 et 0.007 er 0.001] 
N -t 0.914032 -n 1 -e 3.107331
N -t 0.914032 -n 2 -e 3.108566
N -t 0.914032 -n 3 -e 3.108422
r 0.914047144 _0_ AGT  --- 7 ack 60 [13a 0 1 800] [energy 3.103910 ei 0.088 es 0.000 et 0.007 er 0.001] ------- [1:0 0:0 32 0] [1 0] 1 0
s 0.914047144 _0_ AGT  --- 9 tcp 1040 [0 0 0 0] [energy 3.103910 ei 0.088 es 0.000 et 0.007 er 0.001] ------- [0:0 1:0 32 0] [3 0] 0 0
r 0.914047144 _0_ RTR  --- 9 tcp 1040 [0 0 0 0] [energy 3.103910 ei 0.088 es 0.000 et 0.007 er 0.001] ------- [0:0 1:0 32 0] [3 0] 0 0
s 0.914047144 _0_ RTR  --- 9 tcp 1060 [0 0 0 0] [energy 3.103910 ei 0.088 es 0.000 et 0.007 er 0.001] ------- [0:0 1:0 32 1] [3 0] 0 0
s 0.914047144 _0_ AGT  --- 10 tcp 1040 [0 0 0 0] [energy 3.103910 ei 0.088 es 0.000 et 0.007 er 0.001] ------- [0:0 1:0 32 0] [4 0] 0 0
r 0.914047144 _0_ RTR  --- 10 tcp 1040 [0 0 0 0] [energy 3.103910 ei 0.088 es 0.000 et 0.007 er 0.001] ------- [0:0 1:0 32 0] [4 0] 0 0
s 0.914047144 _0_ RTR  --- 10 tcp 1060 [0 0 0 0] [energy 3.103910 ei 0.088 es 0.000 et 0.007 er 0.001] ------- [0:0 1:0 32 1] [4 0] 0 0
r 0.914336158 _1_ MAC  --- 0 ACK 38 [0 1 0 0] [energy 3.107331 ei 0.088 es 0.000 et 0.002 er 0.002] 
s 0.914786158 _1_ MAC  --- 0 RTS 44 [62e 0 1 0] [energy 3.107331 ei 0.088 es 0.000 et 0.002 er 0.002] 
N -t 0.914786 -n 0 -e 3.103830
N -t 0.914786 -n 2 -e 3.108486
N -t 0.914786 -n 3 -e 3.108342
r 0.915138172 _0_ MAC  --- 0 RTS 44 [62e 0 1 0] [energy 3.103830 ei 0.088 es 0.000 et 0.007 er 0.001] 
s 0.915148172 _0_ MAC  --- 0 CTS 38 [4f4 1 0 0] [energy 3.103830 ei 0.088 es 0.000 et 0.007 er 0.001] 
N -t 0.915148 -n 1 -e 3.107149
N -t 0.915148 -n 2 -e 3.108455
N -t 0.915148 -n 3 -e 3.108311
r 0.915452186 _1_ MAC  --- 0 CTS 38 [4f4 1 0 0] [energy 3.107149 ei 0.088 es 0.000 et 0.002 er 0.002] 
s 0.915462186 _1_ MAC  --- 8 ack 118 [13a 0 1 800] [energy 3.107149 ei 0.088 es 0.000 et 0.002 er 0.002] ------- [1:0 0:0 32 0] [2 0] 0 0
N -t 0.915462 -n 0 -e 3.103643
N -t 0.915462 -n 2 -e 3.108359
N -t 0.915462 -n 3 -e 3.108215
r 0.916406200 _0_ MAC  --- 8 ack 60 [13a 0 1 800] [energy 3.103643 ei 0.088 es 0.000 et 0.007 er 0.001] ------- [1:0 0:0 32 0] [2 0] 1 0
s 0.916416200 _0_ MAC  --- 0 ACK 38 [0 1 0 0] [energy 3.103643 ei 0.088 es 0.000 et 0.007 er 0.001] 
N -t 0.916416 -n 1 -e 3.106834
N -t 0.916416 -n 2 -e 3.108328
N -t 0.916416 -n 3 -e 3.108184
r 0.916431200 _0_ AGT  --- 8 ack 60 [13a 0 1 800] [energy 3.103550 ei 0.088 es 0.000 et 0.007 er 0.001] ------- [1:0 0:0 32 0] [2 0] 1 0
s 0.916431200 _0_ AGT  --- 11 tcp 1040 [0 0 0 0] [energy 3.103550 ei 0.088 es 0.000 et 0.007 er 0.001] ------- [0:0 1:0 32 0] [5 0] 0 0
r 0.916431200 _0_ RTR  --- 11 tcp 1040 [0 0 0 0] [energy 3.103550 ei 0.088 es 0.000 et 0.007 er 0.001] ------- [0:0 1:0 32 0] [5 0] 0 0
s 0.916431200 _0_ RTR  --- 11 tcp 1060 [0 0 0 0] [energy 3.103550 ei 0.088 es 0.000 et 0.007 er 0.001] ------- [0:0 1:0 32 1] [5 0] 0 0
s 0.916431200 _0_ AGT  --- 12 tcp 1040 [0 0 0 0] [energy 3.103550 ei 0.088 es 0.000 et 0.007 er 0.001] ------- [0:0 1:0 32 0] [6 0] 0 0
r 0.916431200 _0_ RTR  --- 12 tcp 1040 [0 0 0 0] [energy 3.103550 ei 0.088 es 0.000 et 0.007 er 0.001] ------- [0:0 1:0 32 0] [6 0] 0 0
s 0.916431200 _0_ RTR  --- 12 tcp 1060 [0 0 0 0] [energy 3.103550 ei 0.088 es 0.000 et 0.007 er 0.001] ------- [0:0 1:0 32 1] [6 0] 0 0
r 0.916720214 _1_ MAC  --- 0 ACK 38 [0 1 0 0] [energy 3.106834 ei 0.088 es 0.000 et 0.002 er 0.002] 
s 0.916930200 _0_ MAC  --- 0 RTS 44 [256e 1 0 0] [energy 3.103550 ei 0.088 es 0.000 et 0.007 er 0.001] 
N -t 0.916930 -n 1 -e 3.106777
N -t 0.916930 -n 2 -e 3.108272
N -t 0.916930 -n 3 -e 3.108128
r 0.917282214 _1_ MAC  --- 0 RTS 44 [256e 1 0 0] [energy 3.106777 ei 0.088 es 0.000 et 0.002 er 0.002] 
s 0.917292214 _1_ MAC  --- 0 CTS 38 [2434 0 0 0] [energy 3.106777 ei 0.088 es 0.000 et 0.002 er 0.002] 
N -t 0.917292 -n 0 -e 3.103392
N -t 0.917292 -n 2 -e 3.108240
N -t 0.917292 -n 3 -e 3.108096
r 0.917596228 _0_ MAC  --- 0 CTS 38 [2434 0 0 0] [energy 3.103392 ei 0.088 es 0.000 et 0.007 er 0.001] 
s 0.917606228 _0_ MAC  --- 9 tcp 1118 [13a 1 0 800] [energy 3.103392 ei 0.088 es 0.000 et 0.007 er 0.001] ------- [0:0 1:0 32 1] [3 0] 0 0
N -t 0.917606 -n 1 -e 3.105790
N -t 0.917606 -n 2 -e 3.107345
N -t 0.917606 -n 3 -e 3.107201
r 0.926550243 _1_ MAC  --- 9 tcp 1060 [13a 1 0 800] [energy 3.105790 ei 0.088 es 0.000 et 0.002 er 0.003] ------- [0:0 1:0 32 1] [3 0] 1 0
s 0.926560243 _1_ MAC  --- 0 ACK 38 [0 0 0 0] [energy 3.105790 ei 0.088 es 0.000 et 0.002 er 0.003] 
N -t 0.926560 -n 0 -e 3.100677
N -t 0.926560 -n 2 -e 3.107314
N -t 0.926560 -n 3 -e 3.107170
r 0.926575243 _1_ AGT  --- 9 tcp 1060 [13a 1 0 800] [energy 3.105698 ei 0.088 es 0.000 et 0.002 er 0.003] ------- [0:0 1:0 32 1] [3 0] 1 0
s 0.926575243 _1_ AGT  --- 13 ack 40 [0 0 0 0] [energy 3.105698 ei 0.088 es 0.000 et 0.002 er 0.003] ------- [1:0 0:0 32 0] [3 0] 0 0
r 0.926575243 _1_ RTR  --- 13 ack 40 [0 0 0 0] [energy 3.105698 ei 0.088 es 0.000 et 0.002 er 0.003] ------- [1:0 0:0 32 0] [3 0] 0 0
s 0.926575243 _1_ RTR  --- 13 ack 60 [0 0 0 0] [energy 3.105698 ei 0.088 es 0.000 et 0.002 er 0.003] ------- [1:0 0:0 32 0] [3 0] 0 0
r 0.926864257 _0_ MAC  --- 0 ACK 38 [0 0 0 0] [energy 3.100677 ei 0.088 es 0.000 et 0.010 er 0.001] 
s 0.927274257 _0_ MAC  --- 0 RTS 44 [256e 1 0 0] [energy 3.100677 ei 0.088 es 0.000 et 0.010 er 0.001] 
N -t 0.927274 -n 1 -e 3.105621
N -t 0.927274 -n 2 -e 3.107237
N -t 0.927274 -n 3 -e 3.107093
r 0.927626271 _1_ MAC  --- 0 RTS 44 [256e 1 0 0] [energy 3.105621 ei 0.089 es 0.000 et 0.002 er 0.003] 
s 0.927636271 _1_ MAC  --- 0 CTS 38 [2434 0 0 0] [energy 3.105621 ei 0.089 es 0.000 et 0.002 er 0.003] 
N -t 0.927636 -n 0 -e 3.100499
N -t 0.927636 -n 2 -e 3.107206
N -t 0.927636 -n 3 -e 3.107062
r 0.927940285 _0_ MAC  --- 0 CTS 38 [2434 0 0 0] [energy 3.100499 ei 0.089 es 0.000 et 0.010 er 0.001] 
s 0.927950285 _0_ MAC  --- 10 tcp 1118 [13a 1 0 800] [energy 3.100499 ei 0.089 es 0.000 et 0.010 er 0.001] ------- [0:0 1:0 32 1] [4 0] 0 0
N -t 0.927950 -n 1 -e 3.104634
N -t 0.927950 -n 2 -e 3.106311
N -t 0.927950 -n 3 -e 3.106167
r 0.936894299 _1_ MAC  --- 10 tcp 1060 [13a 1 0 800] [energy 3.104634 ei 0.089 es 0.000 et 0.003 er 0.004] ------- [0:0 1:0 32 1] [4 0] 1 0
s 0.936904299 _1_ MAC  --- 0 ACK 38 [0 0 0 0] [energy 3.104634 ei 0.089 es 0.000 et 0.003 er 0.004] 
N -t 0.936904 -n 0 -e 3.097783
N -t 0.936904 -n 2 -e 3.106279
N -t 0.936904 -n 3 -e 3.106135
r 0.936919299 _1_ AGT  --- 10 tcp 1060 [13a 1 0 800] [energy 3.104542 ei 0.089 es 0.000 et 0.003 er 0.004] ------- [0:0 1:0 32 1] [4 0] 1 0
s 0.936919299 _1_ AGT  --- 14 ack 40 [0 0 0 0] [energy 3.104542 ei 0.089 es 0.000 et 0.003 er 0.004] ------- [1:0 0:0 32 0] [4 0] 0 0
r 0.936919299 _1_ RTR  --- 14 ack 40 [0 0 0 0] [energy 3.104542 ei 0.089 es 0.000 et 0.003 er 0.004] ------- [1:0 0:0 32 0] [4 0] 0 0
s 0.936919299 _1_ RTR  --- 14 ack 60 [0 0 0 0] [energy 3.104542 ei 0.089 es 0.000 et 0.003 er 0.004] ------- [1:0 0:0 32 0] [4 0] 0 0
r 0.937208313 _0_ MAC  --- 0 ACK 38 [0 0 0 0] [energy 3.097783 ei 0.089 es 0.000 et 0.013 er 0.001] 
s 0.937278299 _1_ MAC  --- 0 RTS 44 [62e 0 1 0] [energy 3.104542 ei 0.089 es 0.000 et 0.003 er 0.004] 
N -t 0.937278 -n 0 -e 3.097741
N -t 0.937278 -n 2 -e 3.106237
N -t 0.937278 -n 3 -e 3.106093
r 0.937630313 _0_ MAC  --- 0 RTS 44 [62e 0 1 0] [energy 3.097741 ei 0.089 es 0.000 et 0.013 er 0.001] 
s 0.937640313 _0_ MAC  --- 0 CTS 38 [4f4 1 0 0] [energy 3.097741 ei 0.089 es 0.000 et 0.013 er 0.001] 
N -t 0.937640 -n 1 -e 3.104398
N -t 0.937640 -n 2 -e 3.106206
N -t 0.937640 -n 3 -e 3.106062
r 0.937944327 _1_ MAC  --- 0 CTS 38 [4f4 1 0 0] [energy 3.104398 ei 0.089 es 0.000 et 0.003 er 0.004] 
s 0.937954327 _1_ MAC  --- 13 ack 118 [13a 0 1 800] [energy 3.104398 ei 0.089 es 0.000 et 0.003 er 0.004] ------- [1:0 0:0 32 0] [3 0] 0 0
N -t 0.937954 -n 0 -e 3.097553
N -t 0.937954 -n 2 -e 3.106110
N -t 0.937954 -n 3 -e 3.105966
r 0.938898342 _0_ MAC  --- 13 ack 60 [13a 0 1 800] [energy 3.097553 ei 0.089 es 0.000 et 0.013 er 0.001] ------- [1:0 0:0 32 0] [3 0] 1 0
s 0.938908342 _0_ MAC  --- 0 ACK 38 [0 1 0 0] [energy 3.097553 ei 0.089 es 0.000 et 0.013 er 0.001] 
N -t 0.938908 -n 1 -e 3.104082
N -t 0.938908 -n 2 -e 3.106079
N -t 0.938908 -n 3 -e 3.105935
r 0.938923342 _0_ AGT  --- 13 ack 60 [13a 0 1 800] [energy 3.097461 ei 0.089 es 0.000 et 0.013 er 0.001] ------- [1:0 0:0 32 0] [3 0] 1 0
s 0.938923342 _0_ AGT  --- 15 tcp 1040 [0 0 0 0] [energy 3.097461 ei 0.089 es 0.000 et 0.013 er 0.001] ------- [0:0 1:0 32 0] [7 0] 0 0
r 0.938923342 _0_ RTR  --- 15 tcp 1040 [0 0 0 0] [energy 3.097461 ei 0.089 es 0.000 et 0.013 er 0.001] ------- [0:0 1:0 32 0] [7 0] 0 0
s 0.938923342 _0_ RTR  --- 15 tcp 1060 [0 0 0 0] [energy 3.097461 ei 0.089 es 0.000 et 0.013 er 0.001] ------- [0:0 1:0 32 1] [7 0] 0 0
s 0.938923342 _0_ AGT  --- 16 tcp 1040 [0 0 0 0] [energy 3.097461 ei 0.089 es 0.000 et 0.013 er 0.001] ------- [0:0 1:0 32 0] [8 0] 0 0
r 0.938923342 _0_ RTR  --- 16 tcp 1040 [0 0 0 0] [energy 3.097461 ei 0.089 es 0.000 et 0.013 er 0.001] ------- [0:0 1:0 32 0] [8 0] 0 0
s 0.938923342 _0_ RTR  --- 16 tcp 1060 [0 0 0 0] [energy 3.097461 ei 0.089 es 0.000 et 0.013 er 0.001] ------- [0:0 1:0 32 1] [8 0] 0 0
r 0.939212356 _1_ MAC  --- 0 ACK 38 [0 1 0 0] [energy 3.104082 ei 0.089 es 0.000 et 0.003 er 0.004] 
s 0.939282342 _0_ MAC  --- 0 RTS 44 [256e 1 0 0] [energy 3.097461 ei 0.089 es 0.000 et 0.013 er 0.001] 
N -t 0.939282 -n 1 -e 3.104040
N -t 0.939282 -n 2 -e 3.106037
N -t 0.939282 -n 3 -e 3.105893
r 0.939634356 _1_ MAC  --- 0 RTS 44 [256e 1 0 0] [energy 3.104040 ei 0.089 es 0.000 et 0.003 er 0.004] 
s 0.939644356 _1_ MAC  --- 0 CTS 38 [2434 0 0 0] [energy 3.104040 ei 0.089 es 0.000 et 0.003 er 0.004] 
N -t 0.939644 -n 0 -e 3.097317
N -t 0.939644 -n 2 -e 3.106005
N -t 0.939644 -n 3 -e 3.105861
r 0.939948370 _0_ MAC  --- 0 CTS 38 [2434 0 0 0] [energy 3.097317 ei 0.089 es 0.000 et 0.013 er 0.001] 
s 0.939958370 _0_ MAC  --- 11 tcp 1118 [13a 1 0 800] [energy 3.097317 ei 0.089 es 0.000 et 0.013 er 0.001] ------- [0:0 1:0 32 1] [5 0] 0 0
N -t 0.939958 -n 1 -e 3.103052
N -t 0.939958 -n 2 -e 3.105110
N -t 0.939958 -n 3 -e 3.104966
r 0.948902384 _1_ MAC  --- 11 tcp 1060 [13a 1 0 800] [energy 3.103052 ei 0.089 es 0.000 et 0.003 er 0.005] ------- [0:0 1:0 32 1] [5 0] 1 0
s 0.948912384 _1_ MAC  --- 0 ACK 38 [0 0 0 0] [energy 3.103052 ei 0.089 es 0.000 et 0.003 er 0.005] 
N -t 0.948912 -n 0 -e 3.094602
N -t 0.948912 -n 2 -e 3.105078
N -t 0.948912 -n 3 -e 3.104934
r 0.948927384 _1_ AGT  --- 11 tcp 1060 [13a 1 0 800] [energy 3.102960 ei 0.089 es 0.000 et 0.003 er 0.005] ------- [0:0 1:0 32 1] [5 0] 1 0
s 0.948927384 _1_ AGT  --- 17 ack 40 [0 0 0 0] [energy 3.102960 ei 0.089 es 0.000 et 0.003 er 0.005] ------- [1:0 0:0 32 0] [5 0] 0 0
r 0.948927384 _1_ RTR  --- 17 ack 40 [0 0 0 0] [energy 3.102960 ei 0.089 es 0.000 et 0.003 er 0.005] ------- [1:0 0:0 32 0] [5 0] 0 0
s 0.948927384 _1_ RTR  --- 17 ack 60 [0 0 0 0] [energy 3.102960 ei 0.089 es 0.000 et 0.003 er 0.005] ------- [1:0 0:0 32 0] [5 0] 0 0
r 0.949216398 _0_ MAC  --- 0 ACK 38 [0 0 0 0] [energy 3.094602 ei 0.089 es 0.000 et 0.016 er 0.001] 
s 0.949546384 _1_ MAC  --- 0 RTS 44 [62e 0 1 0] [energy 3.102960 ei 0.089 es 0.000 et 0.003 er 0.005] 
N -t 0.949546 -n 0 -e 3.094533
N -t 0.949546 -n 2 -e 3.105010
N -t 0.949546 -n 3 -e 3.104866
r 0.949898398 _0_ MAC  --- 0 RTS 44 [62e 0 1 0] [energy 3.094533 ei 0.089 es 0.000 et 0.016 er 0.001] 
s 0.949908398 _0_ MAC  --- 0 CTS 38 [4f4 1 0 0] [energy 3.094533 ei 0.089 es 0.000 et 0.016 er 0.001] 
N -t 0.949908 -n 1 -e 3.102790
N -t 0.949908 -n 2 -e 3.104979
N -t 0.949909 -n 3 -e 3.104835
r 0.950212412 _1_ MAC  --- 0 CTS 38 [4f4 1 0 0] [energy 3.102790 ei 0.089 es 0.000 et 0.003 er 0.005] 
s 0.950222412 _1_ MAC  --- 14 ack 118 [13a 0 1 800] [energy 3.102790 ei 0.089 es 0.000 et 0.003 er 0.005] ------- [1:0 0:0 32 0] [4 0] 0 0
N -t 0.950222 -n 0 -e 3.094346
N -t 0.950222 -n 2 -e 3.104883
N -t 0.950223 -n 3 -e 3.104739
r 0.951166426 _0_ MAC  --- 14 ack 60 [13a 0 1 800] [energy 3.094346 ei 0.089 es 0.000 et 0.016 er 0.001] ------- [1:0 0:0 32 0] [4 0] 1 0
s 0.951176426 _0_ MAC  --- 0 ACK 38 [0 1 0 0] [energy 3.094346 ei 0.089 es 0.000 et 0.016 er 0.001] 
N -t 0.951176 -n 1 -e 3.102474
N -t 0.951176 -n 2 -e 3.104852
N -t 0.951177 -n 3 -e 3.104708
r 0.951191426 _0_ AGT  --- 14 ack 60 [13a 0 1 800] [energy 3.094254 ei 0.089 es 0.000 et 0.016 er 0.001] ------- [1:0 0:0 32 0] [4 0] 1 0
s 0.951191426 _0_ AGT  --- 18 tcp 1040 [0 0 0 0] [energy 3.094254 ei 0.089 es 0.000 et 0.016 er 0.001] ------- [0:0 1:0 32 0] [9 0] 0 0
r 0.951191426 _0_ RTR  --- 18 tcp 1040 [0 0 0 0] [energy 3.094254 ei 0.089 es 0.000 et 0.016 er 0.001] ------- [0:0 1:0 32 0] [9 0] 0 0
s 0.951191426 _0_ RTR  --- 18 tcp 1060 [0 0 0 0] [energy 3.094254 ei 0.089 es 0.000 et 0.016 er 0.001] ------- [0:0 1:0 32 1] [9 0] 0 0
s 0.951191426 _0_ AGT  --- 19 tcp 1040 [0 0 0 0] [energy 3.094254 ei 0.089 es 0.000 et 0.016 er 0.001] ------- [0:0 1:0 32 0] [10 0] 0 0
r 0.951191426 _0_ RTR  --- 19 tcp 1040 [0 0 0 0] [energy 3.094254 ei 0.089 es 0.000 et 0.016 er 0.001] ------- [0:0 1:0 32 0] [10 0] 0 0
s 0.951191426 _0_ RTR  --- 19 tcp 1060 [0 0 0 0] [energy 3.094254 ei 0.089 es 0.000 et 0.016 er 0.001] ------- [0:0 1:0 32 1] [10 0] 0 0
r 0.951480441 _1_ MAC  --- 0 ACK 38 [0 1 0 0] [energy 3.102474 ei 0.089 es 0.000 et 0.004 er 0.005] 
s 0.951610426 _0_ MAC  --- 0 RTS 44 [256e 1 0 0] [energy 3.094254 ei 0.089 es 0.000 et 0.016 er 0.001] 
N -t 0.951610 -n 1 -e 3.102426
N -t 0.951610 -n 2 -e 3.104804
N -t 0.951611 -n 3 -e 3.104660
r 0.951962441 _1_ MAC  --- 0 RTS 44 [256e 1 0 0] [energy 3.102426 ei 0.089 es 0.000 et 0.004 er 0.005] 
s 0.951972441 _1_ MAC  --- 0 CTS 38 [2434 0 0 0] [energy 3.102426 ei 0.089 es 0.000 et 0.004 er 0.005] 
N -t 0.951972 -n 0 -e 3.094104
N -t 0.951972 -n 2 -e 3.104772
N -t 0.951973 -n 3 -e 3.104628
r 0.952276455 _0_ MAC  --- 0 CTS 38 [2434 0 0 0] [energy 3.094104 ei 0.089 es 0.000 et 0.016 er 0.001] 
s 0.952286455 _0_ MAC  --- 12 tcp 1118 [13a 1 0 800] [energy 3.094104 ei 0.089 es 0.000 et 0.016 er 0.001] ------- [0:0 1:0 32 1] [6 0] 0 0
N -t 0.952286 -n 1 -e 3.101439
N -t 0.952287 -n 2 -e 3.103877
N -t 0.952287 -n 3 -e 3.103733
r 0.961230469 _1_ MAC  --- 12 tcp 1060 [13a 1 0 800] [energy 3.101439 ei 0.089 es 0.000 et 0.004 er 0.006] ------- [0:0 1:0 32 1] [6 0] 1 0
s 0.961240469 _1_ MAC  --- 0 ACK 38 [0 0 0 0] [energy 3.101439 ei 0.089 es 0.000 et 0.004 er 0.006] 
N -t 0.961240 -n 0 -e 3.091388
N -t 0.961241 -n 2 -e 3.103846
N -t 0.961241 -n 3 -e 3.103702
r 0.961255469 _1_ AGT  --- 12 tcp 1060 [13a 1 0 800] [energy 3.101346 ei 0.089 es 0.000 et 0.004 er 0.006] ------- [0:0 1:0 32 1] [6 0] 1 0
s 0.961255469 _1_ AGT  --- 20 ack 40 [0 0 0 0] [energy 3.101346 ei 0.089 es 0.000 et 0.004 er 0.006] ------- [1:0 0:0 32 0] [6 0] 0 0
r 0.961255469 _1_ RTR  --- 20 ack 40 [0 0 0 0] [energy 3.101346 ei 0.089 es 0.000 et 0.004 er 0.006] ------- [1:0 0:0 32 0] [6 0] 0 0
s 0.961255469 _1_ RTR  --- 20 ack 60 [0 0 0 0] [energy 3.101346 ei 0.089 es 0.000 et 0.004 er 0.006] ------- [1:0 0:0 32 0] [6 0] 0 0
r 0.961544483 _0_ MAC  --- 0 ACK 38 [0 0 0 0] [energy 3.091388 ei 0.089 es 0.000 et 0.019 er 0.001] 
s 0.961674469 _1_ MAC  --- 0 RTS 44 [62e 0 1 0] [energy 3.101346 ei 0.089 es 0.000 et 0.004 er 0.006] 
s 0.961674483 _0_ MAC  --- 0 RTS 44 [256e 1 0 0] [energy 3.091388 ei 0.089 es 0.000 et 0.019 er 0.001] 
N -t 0.961674 -n 0 -e 3.091269
N -t 0.961674 -n 1 -e 3.101228
N -t 0.961675 -n 2 -e 3.103797
N -t 0.961675 -n 2 -e 3.103797