+ 0.2 1 2 tcp 40 ------- 1 1.0 3.0 0 0
- 0.2 1 2 tcp 40 ------- 1 1.0 3.0 0 0
r 0.21032 1 2 tcp 40 ------- 1 1.0 3.0 0 0
+ 0.21032 2 3 tcp 40 ------- 1 1.0 3.0 0 0
- 0.21032 2 3 tcp 40 ------- 1 1.0 3.0 0 0
r 0.22064 2 3 tcp 40 ------- 1 1.0 3.0 0 0
+ 0.22064 3 2 ack 40 ------- 1 3.0 1.0 0 1
- 0.22064 3 2 ack 40 ------- 1 3.0 1.0 0 1
r 0.23096 3 2 ack 40 ------- 1 3.0 1.0 0 1
+ 0.23096 2 1 ack 40 ------- 1 3.0 1.0 0 1
- 0.23096 2 1 ack 40 ------- 1 3.0 1.0 0 1
r 0.24128 2 1 ack 40 ------- 1 3.0 1.0 0 1
+ 0.24128 1 2 tcp 1040 ------- 1 1.0 3.0 1 2
- 0.24128 1 2 tcp 1040 ------- 1 1.0 3.0 1 2
+ 0.24128 1 2 tcp 1040 ------- 1 1.0 3.0 2 3
- 0.2496 1 2 tcp 1040 ------- 1 1.0 3.0 2 3
r 0.2596 1 2 tcp 1040 ------- 1 1.0 3.0 1 2
+ 0.2596 2 3 tcp 1040 ------- 1 1.0 3.0 1 2
- 0.2596 2 3 tcp 1040 ------- 1 1.0 3.0 1 2
r 0.26792 1 2 tcp 1040 ------- 1 1.0 3.0 2 3
+ 0.26792 2 3 tcp 1040 ------- 1 1.0 3.0 2 3
- 0.26792 2 3 tcp 1040 ------- 1 1.0 3.0 2 3
r 0.27792 2 3 tcp 1040 ------- 1 1.0 3.0 1 2
+ 0.27792 3 2 ack 40 ------- 1 3.0 1.0 1 4
- 0.27792 3 2 ack 40 ------- 1 3.0 1.0 1 4
r 0.28624 2 3 tcp 1040 ------- 1 1.0 3.0 2 3
+ 0.28624 3 2 ack 40 ------- 1 3.0 1.0 2 5
- 0.28624 3 2 ack 40 ------- 1 3.0 1.0 2 5
r 0.28824 3 2 ack 40 ------- 1 3.0 1.0 1 4
+ 0.28824 2 1 ack 40 ------- 1 3.0 1.0 1 4
- 0.28824 2 1 ack 40 ------- 1 3.0 1.0 1 4
r 0.29656 3 2 ack 40 ------- 1 3.0 1.0 2 5
+ 0.29656 2 1 ack 40 ------- 1 3.0 1.0 2 5
- 0.29656 2 1 ack 40 ------- 1 3.0 1.0 2 5
r 0.29856 2 1 ack 40 ------- 1 3.0 1.0 1 4
+ 0.29856 1 2 tcp 1040 ------- 1 1.0 3.0 3 6
- 0.29856 1 2 tcp 1040 ------- 1 1.0 3.0 3 6
+ 0.29856 1 2 tcp 1040 ------- 1 1.0 3.0 4 7
r 0.30688 2 1 ack 40 ------- 1 3.0 1.0 2 5
+ 0.30688 1 2 tcp 1040 ------- 1 1.0 3.0 5 8
+ 0.30688 1 2 tcp 1040 ------- 1 1.0 3.0 6 9
- 0.30688 1 2 tcp 1040 ------- 1 1.0 3.0 4 7
- 0.3152 1 2 tcp 1040 ------- 1 1.0 3.0 5 8
r 0.31688 1 2 tcp 1040 ------- 1 1.0 3.0 3 6
+ 0.31688 2 3 tcp 1040 ------- 1 1.0 3.0 3 6
- 0.31688 2 3 tcp 1040 ------- 1 1.0 3.0 3 6
- 0.32352 1 2 tcp 1040 ------- 1 1.0 3.0 6 9
r 0.3252 1 2 tcp 1040 ------- 1 1.0 3.0 4 7
+ 0.3252 2 3 tcp 1040 ------- 1 1.0 3.0 4 7
- 0.3252 2 3 tcp 1040 ------- 1 1.0 3.0 4 7
r 0.33352 1 2 tcp 1040 ------- 1 1.0 3.0 5 8
+ 0.33352 2 3 tcp 1040 ------- 1 1.0 3.0 5 8
- 0.33352 2 3 tcp 1040 ------- 1 1.0 3.0 5 8
r 0.3352 2 3 tcp 1040 ------- 1 1.0 3.0 3 6
+ 0.3352 3 2 ack 40 ------- 1 3.0 1.0 3 10
- 0.3352 3 2 ack 40 ------- 1 3.0 1.0 3 10
r 0.34184 1 2 tcp 1040 ------- 1 1.0 3.0 6 9
+ 0.34184 2 3 tcp 1040 ------- 1 1.0 3.0 6 9
- 0.34184 2 3 tcp 1040 ------- 1 1.0 3.0 6 9
r 0.34352 2 3 tcp 1040 ------- 1 1.0 3.0 4 7
+ 0.34352 3 2 ack 40 ------- 1 3.0 1.0 4 11
- 0.34352 3 2 ack 40 ------- 1 3.0 1.0 4 11
r 0.34552 3 2 ack 40 ------- 1 3.0 1.0 3 10
+ 0.34552 2 1 ack 40 ------- 1 3.0 1.0 3 10
- 0.34552 2 1 ack 40 ------- 1 3.0 1.0 3 10
r 0.35184 2 3 tcp 1040 ------- 1 1.0 3.0 5 8
+ 0.35184 3 2 ack 40 ------- 1 3.0 1.0 5 12
- 0.35184 3 2 ack 40 ------- 1 3.0 1.0 5 12
r 0.35384 3 2 ack 40 ------- 1 3.0 1.0 4 11
+ 0.35384 2 1 ack 40 ------- 1 3.0 1.0 4 11
- 0.35384 2 1 ack 40 ------- 1 3.0 1.0 4 11
r 0.35584 2 1 ack 40 ------- 1 3.0 1.0 3 10
+ 0.35584 1 2 tcp 1040 ------- 1 1.0 3.0 7 13
- 0.35584 1 2 tcp 1040 ------- 1 1.0 3.0 7 13
+ 0.35584 1 2 tcp 1040 ------- 1 1.0 3.0 8 14
r 0.36016 2 3 tcp 1040 ------- 1 1.0 3.0 6 9
+ 0.36016 3 2 ack 40 ------- 1 3.0 1.0 6 15
- 0.36016 3 2 ack 40 ------- 1 3.0 1.0 6 15
r 0.36216 3 2 ack 40 ------- 1 3.0 1.0 5 12
+ 0.36216 2 1 ack 40 ------- 1 3.0 1.0 5 12
- 0.36216 2 1 ack 40 ------- 1 3.0 1.0 5 12
r 0.36416 2 1 ack 40 ------- 1 3.0 1.0 4 11
+ 0.36416 1 2 tcp 1040 ------- 1 1.0 3.0 9 16
+ 0.36416 1 2 tcp 1040 ------- 1 1.0 3.0 10 17
- 0.36416 1 2 tcp 1040 ------- 1 1.0 3.0 8 14
r 0.37048 3 2 ack 40 ------- 1 3.0 1.0 6 15
+ 0.37048 2 1 ack 40 ------- 1 3.0 1.0 6 15
- 0.37048 2 1 ack 40 ------- 1 3.0 1.0 6 15
r 0.37248 2 1 ack 40 ------- 1 3.0 1.0 5 12
+ 0.37248 1 2 tcp 1040 ------- 1 1.0 3.0 11 18
+ 0.37248 1 2 tcp 1040 ------- 1 1.0 3.0 12 19
- 0.37248 1 2 tcp 1040 ------- 1 1.0 3.0 9 16
r 0.37416 1 2 tcp 1040 ------- 1 1.0 3.0 7 13
+ 0.37416 2 3 tcp 1040 ------- 1 1.0 3.0 7 13
- 0.37416 2 3 tcp 1040 ------- 1 1.0 3.0 7 13
r 0.3808 2 1 ack 40 ------- 1 3.0 1.0 6 15
+ 0.3808 1 2 tcp 1040 ------- 1 1.0 3.0 13 20
+ 0.3808 1 2 tcp 1040 ------- 1 1.0 3.0 14 21
- 0.3808 1 2 tcp 1040 ------- 1 1.0 3.0 10 17
r 0.38248 1 2 tcp 1040 ------- 1 1.0 3.0 8 14
+ 0.38248 2 3 tcp 1040 ------- 1 1.0 3.0 8 14
- 0.38248 2 3 tcp 1040 ------- 1 1.0 3.0 8 14
- 0.38912 1 2 tcp 1040 ------- 1 1.0 3.0 11 18
r 0.3908 1 2 tcp 1040 ------- 1 1.0 3.0 9 16
+ 0.3908 2 3 tcp 1040 ------- 1 1.0 3.0 9 16
- 0.3908 2 3 tcp 1040 ------- 1 1.0 3.0 9 16
r 0.39248 2 3 tcp 1040 ------- 1 1.0 3.0 7 13
+ 0.39248 3 2 ack 40 ------- 1 3.0 1.0 7 22
- 0.39248 3 2 ack 40 ------- 1 3.0 1.0 7 22
- 0.39744 1 2 tcp 1040 ------- 1 1.0 3.0 12 19
r 0.39912 1 2 tcp 1040 ------- 1 1.0 3.0 10 17
+ 0.39912 2 3 tcp 1040 ------- 1 1.0 3.0 10 17
- 0.39912 2 3 tcp 1040 ------- 1 1.0 3.0 10 17
r 0.4008 2 3 tcp 1040 ------- 1 1.0 3.0 8 14
+ 0.4008 3 2 ack 40 ------- 1 3.0 1.0 8 23
- 0.4008 3 2 ack 40 ------- 1 3.0 1.0 8 23
r 0.4028 3 2 ack 40 ------- 1 3.0 1.0 7 22
+ 0.4028 2 1 ack 40 ------- 1 3.0 1.0 7 22
- 0.4028 2 1 ack 40 ------- 1 3.0 1.0 7 22
- 0.40576 1 2 tcp 1040 ------- 1 1.0 3.0 13 20
r 0.40744 1 2 tcp 1040 ------- 1 1.0 3.0 11 18
+ 0.40744 2 3 tcp 1040 ------- 1 1.0 3.0 11 18
- 0.40744 2 3 tcp 1040 ------- 1 1.0 3.0 11 18
r 0.40912 2 3 tcp 1040 ------- 1 1.0 3.0 9 16
+ 0.40912 3 2 ack 40 ------- 1 3.0 1.0 9 24
- 0.40912 3 2 ack 40 ------- 1 3.0 1.0 9 24
r 0.41112 3 2 ack 40 ------- 1 3.0 1.0 8 23
+ 0.41112 2 1 ack 40 ------- 1 3.0 1.0 8 23
- 0.41112 2 1 ack 40 ------- 1 3.0 1.0 8 23
r 0.41312 2 1 ack 40 ------- 1 3.0 1.0 7 22
+ 0.41312 1 2 tcp 1040 ------- 1 1.0 3.0 15 25
+ 0.41312 1 2 tcp 1040 ------- 1 1.0 3.0 16 26
- 0.41408 1 2 tcp 1040 ------- 1 1.0 3.0 14 21
r 0.41576 1 2 tcp 1040 ------- 1 1.0 3.0 12 19
+ 0.41576 2 3 tcp 1040 ------- 1 1.0 3.0 12 19
- 0.41576 2 3 tcp 1040 ------- 1 1.0 3.0 12 19
r 0.41744 2 3 tcp 1040 ------- 1 1.0 3.0 10 17
+ 0.41744 3 2 ack 40 ------- 1 3.0 1.0 10 27
- 0.41744 3 2 ack 40 ------- 1 3.0 1.0 10 27
r 0.41944 3 2 ack 40 ------- 1 3.0 1.0 9 24
+ 0.41944 2 1 ack 40 ------- 1 3.0 1.0 9 24
- 0.41944 2 1 ack 40 ------- 1 3.0 1.0 9 24
r 0.42144 2 1 ack 40 ------- 1 3.0 1.0 8 23
+ 0.42144 1 2 tcp 1040 ------- 1 1.0 3.0 17 28
+ 0.42144 1 2 tcp 1040 ------- 1 1.0 3.0 18 29
- 0.4224 1 2 tcp 1040 ------- 1 1.0 3.0 15 25
r 0.42408 1 2 tcp 1040 ------- 1 1.0 3.0 13 20
+ 0.42408 2 3 tcp 1040 ------- 1 1.0 3.0 13 20
- 0.42408 2 3 tcp 1040 ------- 1 1.0 3.0 13 20
r 0.42576 2 3 tcp 1040 ------- 1 1.0 3.0 11 18
+ 0.42576 3 2 ack 40 ------- 1 3.0 1.0 11 30
- 0.42576 3 2 ack 40 ------- 1 3.0 1.0 11 30
r 0.42776 3 2 ack 40 ------- 1 3.0 1.0 10 27
+ 0.42776 2 1 ack 40 ------- 1 3.0 1.0 10 27
- 0.42776 2 1 ack 40 ------- 1 3.0 1.0 10 27
r 0.42976 2 1 ack 40 ------- 1 3.0 1.0 9 24
+ 0.42976 1 2 tcp 1040 ------- 1 1.0 3.0 19 31
+ 0.42976 1 2 tcp 1040 ------- 1 1.0 3.0 20 32
- 0.43072 1 2 tcp 1040 ------- 1 1.0 3.0 16 26
r 0.4324 1 2 tcp 1040 ------- 1 1.0 3.0 14 21
+ 0.4324 2 3 tcp 1040 ------- 1 1.0 3.0 14 21
- 0.4324 2 3 tcp 1040 ------- 1 1.0 3.0 14 21
r 0.43408 2 3 tcp 1040 ------- 1 1.0 3.0 12 19
+ 0.43408 3 2 ack 40 ------- 1 3.0 1.0 12 33
- 0.43408 3 2 ack 40 ------- 1 3.0 1.0 12 33
r 0.43608 3 2 ack 40 ------- 1 3.0 1.0 11 30
+ 0.43608 2 1 ack 40 ------- 1 3.0 1.0 11 30
- 0.43608 2 1 ack 40 ------- 1 3.0 1.0 11 30
r 0.43808 2 1 ack 40 ------- 1 3.0 1.0 10 27
+ 0.43808 1 2 tcp 1040 ------- 1 1.0 3.0 21 34
+ 0.43808 1 2 tcp 1040 ------- 1 1.0 3.0 22 35
- 0.43904 1 2 tcp 1040 ------- 1 1.0 3.0 17 28
r 0.44072 1 2 tcp 1040 ------- 1 1.0 3.0 15 25
+ 0.44072 2 3 tcp 1040 ------- 1 1.0 3.0 15 25
- 0.44072 2 3 tcp 1040 ------- 1 1.0 3.0 15 25
r 0.4424 2 3 tcp 1040 ------- 1 1.0 3.0 13 20
+ 0.4424 3 2 ack 40 ------- 1 3.0 1.0 13 36
- 0.4424 3 2 ack 40 ------- 1 3.0 1.0 13 36
r 0.4444 3 2 ack 40 ------- 1 3.0 1.0 12 33
+ 0.4444 2 1 ack 40 ------- 1 3.0 1.0 12 33
- 0.4444 2 1 ack 40 ------- 1 3.0 1.0 12 33
r 0.4464 2 1 ack 40 ------- 1 3.0 1.0 11 30
+ 0.4464 1 2 tcp 1040 ------- 1 1.0 3.0 23 37
+ 0.4464 1 2 tcp 1040 ------- 1 1.0 3.0 24 38
- 0.44736 1 2 tcp 1040 ------- 1 1.0 3.0 18 29
r 0.44904 1 2 tcp 1040 ------- 1 1.0 3.0 16 26
+ 0.44904 2 3 tcp 1040 ------- 1 1.0 3.0 16 26
- 0.44904 2 3 tcp 1040 ------- 1 1.0 3.0 16 26
r 0.45072 2 3 tcp 1040 ------- 1 1.0 3.0 14 21
+ 0.45072 3 2 ack 40 ------- 1 3.0 1.0 14 39
- 0.45072 3 2 ack 40 ------- 1 3.0 1.0 14 39
r 0.45272 3 2 ack 40 ------- 1 3.0 1.0 13 36
+ 0.45272 2 1 ack 40 ------- 1 3.0 1.0 13 36
- 0.45272 2 1 ack 40 ------- 1 3.0 1.0 13 36
r 0.45472 2 1 ack 40 ------- 1 3.0 1.0 12 33
+ 0.45472 1 2 tcp 1040 ------- 1 1.0 3.0 25 40
+ 0.45472 1 2 tcp 1040 ------- 1 1.0 3.0 26 41
- 0.45568 1 2 tcp 1040 ------- 1 1.0 3.0 19 31
r 0.45736 1 2 tcp 1040 ------- 1 1.0 3.0 17 28
+ 0.45736 2 3 tcp 1040 ------- 1 1.0 3.0 17 28
- 0.45736 2 3 tcp 1040 ------- 1 1.0 3.0 17 28
r 0.45904 2 3 tcp 1040 ------- 1 1.0 3.0 15 25
+ 0.45904 3 2 ack 40 ------- 1 3.0 1.0 15 42
- 0.45904 3 2 ack 40 ------- 1 3.0 1.0 15 42
r 0.46104 3 2 ack 40 ------- 1 3.0 1.0 14 39
+ 0.46104 2 1 ack 40 ------- 1 3.0 1.0 14 39
- 0.46104 2 1 ack 40 ------- 1 3.0 1.0 14 39
r 0.46304 2 1 ack 40 ------- 1 3.0 1.0 13 36
+ 0.46304 1 2 tcp 1040 ------- 1 1.0 3.0 27 43
+ 0.46304 1 2 tcp 1040 ------- 1 1.0 3.0 28 44
- 0.464 1 2 tcp 1040 ------- 1 1.0 3.0 20 32
r 0.46568 1 2 tcp 1040 ------- 1 1.0 3.0 18 29
+ 0.46568 2 3 tcp 1040 ------- 1 1.0 3.0 18 29
- 0.46568 2 3 tcp 1040 ------- 1 1.0 3.0 18 29
r 0.46736 2 3 tcp 1040 ------- 1 1.0 3.0 16 26
+ 0.46736 3 2 ack 40 ------- 1 3.0 1.0 16 45
- 0.46736 3 2 ack 40 ------- 1 3.0 1.0 16 45
r 0.46936 3 2 ack 40 ------- 1 3.0 1.0 15 42
+ 0.46936 2 1 ack 40 ------- 1 3.0 1.0 15 42
- 0.46936 2 1 ack 40 ------- 1 3.0 1.0 15 42
r 0.47136 2 1 ack 40 ------- 1 3.0 1.0 14 39
+ 0.47136 1 2 tcp 1040 ------- 1 1.0 3.0 29 46
+ 0.47136 1 2 tcp 1040 ------- 1 1.0 3.0 30 47
- 0.47232 1 2 tcp 1040 ------- 1 1.0 3.0 21 34
r 0.474 1 2 tcp 1040 ------- 1 1.0 3.0 19 31
+ 0.474 2 3 tcp 1040 ------- 1 1.0 3.0 19 31
- 0.474 2 3 tcp 1040 ------- 1 1.0 3.0 19 31
r 0.47568 2 3 tcp 1040 ------- 1 1.0 3.0 17 28
+ 0.47568 3 2 ack 40 ------- 1 3.0 1.0 17 48
- 0.47568 3 2 ack 40 ------- 1 3.0 1.0 17 48
r 0.47768 3 2 ack 40 ------- 1 3.0 1.0 16 45
+ 0.47768 2 1 ack 40 ------- 1 3.0 1.0 16 45
- 0.47768 2 1 ack 40 ------- 1 3.0 1.0 16 45
r 0.47968 2 1 ack 40 ------- 1 3.0 1.0 15 42
+ 0.47968 1 2 tcp 1040 ------- 1 1.0 3.0 31 49
+ 0.47968 1 2 tcp 1040 ------- 1 1.0 3.0 32 50
- 0.48064 1 2 tcp 1040 ------- 1 1.0 3.0 22 35
r 0.48232 1 2 tcp 1040 ------- 1 1.0 3.0 20 32
+ 0.48232 2 3 tcp 1040 ------- 1 1.0 3.0 20 32
- 0.48232 2 3 tcp 1040 ------- 1 1.0 3.0 20 32
r 0.484 2 3 tcp 1040 ------- 1 1.0 3.0 18 29
+ 0.484 3 2 ack 40 ------- 1 3.0 1.0 18 51
- 0.484 3 2 ack 40 ------- 1 3.0 1.0 18 51
r 0.486 3 2 ack 40 ------- 1 3.0 1.0 17 48
+ 0.486 2 1 ack 40 ------- 1 3.0 1.0 17 48
- 0.486 2 1 ack 40 ------- 1 3.0 1.0 17 48
r 0.488 2 1 ack 40 ------- 1 3.0 1.0 16 45
+ 0.488 1 2 tcp 1040 ------- 1 1.0 3.0 33 52
+ 0.488 1 2 tcp 1040 ------- 1 1.0 3.0 34 53
- 0.48896 1 2 tcp 1040 ------- 1 1.0 3.0 23 37
r 0.49064 1 2 tcp 1040 ------- 1 1.0 3.0 21 34
+ 0.49064 2 3 tcp 1040 ------- 1 1.0 3.0 21 34
- 0.49064 2 3 tcp 1040 ------- 1 1.0 3.0 21 34
r 0.49232 2 3 tcp 1040 ------- 1 1.0 3.0 19 31
+ 0.49232 3 2 ack 40 ------- 1 3.0 1.0 19 54
- 0.49232 3 2 ack 40 ------- 1 3.0 1.0 19 54
r 0.49432 3 2 ack 40 ------- 1 3.0 1.0 18 51
+ 0.49432 2 1 ack 40 ------- 1 3.0 1.0 18 51
- 0.49432 2 1 ack 40 ------- 1 3.0 1.0 18 51
r 0.49632 2 1 ack 40 ------- 1 3.0 1.0 17 48
+ 0.49632 1 2 tcp 1040 ------- 1 1.0 3.0 35 55
+ 0.49632 1 2 tcp 1040 ------- 1 1.0 3.0 36 56
- 0.49728 1 2 tcp 1040 ------- 1 1.0 3.0 24 38
r 0.49896 1 2 tcp 1040 ------- 1 1.0 3.0 22 35
+ 0.49896 2 3 tcp 1040 ------- 1 1.0 3.0 22 35
- 0.49896 2 3 tcp 1040 ------- 1 1.0 3.0 22 35
r 0.50064 2 3 tcp 1040 ------- 1 1.0 3.0 20 32
+ 0.50064 3 2 ack 40 ------- 1 3.0 1.0 20 57
- 0.50064 3 2 ack 40 ------- 1 3.0 1.0 20 57
r 0.50264 3 2 ack 40 ------- 1 3.0 1.0 19 54
+ 0.50264 2 1 ack 40 ------- 1 3.0 1.0 19 54
- 0.50264 2 1 ack 40 ------- 1 3.0 1.0 19 54
r 0.50464 2 1 ack 40 ------- 1 3.0 1.0 18 51
+ 0.50464 1 2 tcp 1040 ------- 1 1.0 3.0 37 58
+ 0.50464 1 2 tcp 1040 ------- 1 1.0 3.0 38 59
- 0.5056 1 2 tcp 1040 ------- 1 1.0 3.0 25 40
r 0.50728 1 2 tcp 1040 ------- 1 1.0 3.0 23 37
+ 0.50728 2 3 tcp 1040 ------- 1 1.0 3.0 23 37
- 0.50728 2 3 tcp 1040 ------- 1 1.0 3.0 23 37
r 0.50896 2 3 tcp 1040 ------- 1 1.0 3.0 21 34
+ 0.50896 3 2 ack 40 ------- 1 3.0 1.0 21 60
- 0.50896 3 2 ack 40 ------- 1 3.0 1.0 21 60
r 0.51096 3 2 ack 40 ------- 1 3.0 1.0 20 57
+ 0.51096 2 1 ack 40 ------- 1 3.0 1.0 20 57
- 0.51096 2 1 ack 40 ------- 1 3.0 1.0 20 57
r 0.51296 2 1 ack 40 ------- 1 3.0 1.0 19 54
+ 0.51296 1 2 tcp 1040 ------- 1 1.0 3.0 39 61
- 0.51392 1 2 tcp 1040 ------- 1 1.0 3.0 26 41
r 0.5156 1 2 tcp 1040 ------- 1 1.0 3.0 24 38
+ 0.5156 2 3 tcp 1040 ------- 1 1.0 3.0 24 38
- 0.5156 2 3 tcp 1040 ------- 1 1.0 3.0 24 38
r 0.51728 2 3 tcp 1040 ------- 1 1.0 3.0 22 35
+ 0.51728 3 2 ack 40 ------- 1 3.0 1.0 22 62
- 0.51728 3 2 ack 40 ------- 1 3.0 1.0 22 62
r 0.51928 3 2 ack 40 ------- 1 3.0 1.0 21 60
+ 0.51928 2 1 ack 40 ------- 1 3.0 1.0 21 60
- 0.51928 2 1 ack 40 ------- 1 3.0 1.0 21 60
r 0.52128 2 1 ack 40 ------- 1 3.0 1.0 20 57
+ 0.52128 1 2 tcp 1040 ------- 1 1.0 3.0 40 63
- 0.52224 1 2 tcp 1040 ------- 1 1.0 3.0 27 43
r 0.52392 1 2 tcp 1040 ------- 1 1.0 3.0 25 40
+ 0.52392 2 3 tcp 1040 ------- 1 1.0 3.0 25 40
- 0.52392 2 3 tcp 1040 ------- 1 1.0 3.0 25 40
r 0.5256 2 3 tcp 1040 ------- 1 1.0 3.0 23 37
+ 0.5256 3 2 ack 40 ------- 1 3.0 1.0 23 64
- 0.5256 3 2 ack 40 ------- 1 3.0 1.0 23 64
r 0.5276 3 2 ack 40 ------- 1 3.0 1.0 22 62
+ 0.5276 2 1 ack 40 ------- 1 3.0 1.0 22 62
- 0.5276 2 1 ack 40 ------- 1 3.0 1.0 22 62
r 0.5296 2 1 ack 40 ------- 1 3.0 1.0 21 60
+ 0.5296 1 2 tcp 1040 ------- 1 1.0 3.0 41 65
- 0.53056 1 2 tcp 1040 ------- 1 1.0 3.0 28 44
r 0.53224 1 2 tcp 1040 ------- 1 1.0 3.0 26 41
+ 0.53224 2 3 tcp 1040 ------- 1 1.0 3.0 26 41
- 0.53224 2 3 tcp 1040 ------- 1 1.0 3.0 26 41
r 0.53392 2 3 tcp 1040 ------- 1 1.0 3.0 24 38
+ 0.53392 3 2 ack 40 ------- 1 3.0 1.0 24 66
- 0.53392 3 2 ack 40 ------- 1 3.0 1.0 24 66
r 0.53592 3 2 ack 40 ------- 1 3.0 1.0 23 64
+ 0.53592 2 1 ack 40 ------- 1 3.0 1.0 23 64
- 0.53592 2 1 ack 40 ------- 1 3.0 1.0 23 64
r 0.53792 2 1 ack 40 ------- 1 3.0 1.0 22 62
+ 0.53792 1 2 tcp 1040 ------- 1 1.0 3.0 42 67
- 0.53888 1 2 tcp 1040 ------- 1 1.0 3.0 29 46
r 0.54056 1 2 tcp 1040 ------- 1 1.0 3.0 27 43
+ 0.54056 2 3 tcp 1040 ------- 1 1.0 3.0 27 43
- 0.54056 2 3 tcp 1040 ------- 1 1.0 3.0 27 43
r 0.54224 2 3 tcp 1040 ------- 1 1.0 3.0 25 40
+ 0.54224 3 2 ack 40 ------- 1 3.0 1.0 25 68
- 0.54224 3 2 ack 40 ------- 1 3.0 1.0 25 68
r 0.54424 3 2 ack 40 ------- 1 3.0 1.0 24 66
+ 0.54424 2 1 ack 40 ------- 1 3.0 1.0 24 66
- 0.54424 2 1 ack 40 ------- 1 3.0 1.0 24 66
r 0.54624 2 1 ack 40 ------- 1 3.0 1.0 23 64
+ 0.54624 1 2 tcp 1040 ------- 1 1.0 3.0 43 69
- 0.5472 1 2 tcp 1040 ------- 1 1.0 3.0 30 47
r 0.54888 1 2 tcp 1040 ------- 1 1.0 3.0 28 44
+ 0.54888 2 3 tcp 1040 ------- 1 1.0 3.0 28 44
- 0.54888 2 3 tcp 1040 ------- 1 1.0 3.0 28 44
r 0.55056 2 3 tcp 1040 ------- 1 1.0 3.0 26 41
+ 0.55056 3 2 ack 40 ------- 1 3.0 1.0 26 70
- 0.55056 3 2 ack 40 ------- 1 3.0 1.0 26 70
r 0.55256 3 2 ack 40 ------- 1 3.0 1.0 25 68
+ 0.55256 2 1 ack 40 ------- 1 3.0 1.0 25 68
- 0.55256 2 1 ack 40 ------- 1 3.0 1.0 25 68
r 0.55456 2 1 ack 40 ------- 1 3.0 1.0 24 66
+ 0.55456 1 2 tcp 1040 ------- 1 1.0 3.0 44 71
- 0.55552 1 2 tcp 1040 ------- 1 1.0 3.0 31 49
r 0.5572 1 2 tcp 1040 ------- 1 1.0 3.0 29 46
+ 0.5572 2 3 tcp 1040 ------- 1 1.0 3.0 29 46
- 0.5572 2 3 tcp 1040 ------- 1 1.0 3.0 29 46
r 0.55888 2 3 tcp 1040 ------- 1 1.0 3.0 27 43
+ 0.55888 3 2 ack 40 ------- 1 3.0 1.0 27 72
- 0.55888 3 2 ack 40 ------- 1 3.0 1.0 27 72
r 0.56088 3 2 ack 40 ------- 1 3.0 1.0 26 70
+ 0.56088 2 1 ack 40 ------- 1 3.0 1.0 26 70
- 0.56088 2 1 ack 40 ------- 1 3.0 1.0 26 70
r 0.56288 2 1 ack 40 ------- 1 3.0 1.0 25 68
+ 0.56288 1 2 tcp 1040 ------- 1 1.0 3.0 45 73
- 0.56384 1 2 tcp 1040 ------- 1 1.0 3.0 32 50
r 0.56552 1 2 tcp 1040 ------- 1 1.0 3.0 30 47
+ 0.56552 2 3 tcp 1040 ------- 1 1.0 3.0 30 47
- 0.56552 2 3 tcp 1040 ------- 1 1.0 3.0 30 47
r 0.5672 2 3 tcp 1040 ------- 1 1.0 3.0 28 44
+ 0.5672 3 2 ack 40 ------- 1 3.0 1.0 28 74
- 0.5672 3 2 ack 40 ------- 1 3.0 1.0 28 74
r 0.5692 3 2 ack 40 ------- 1 3.0 1.0 27 72
+ 0.5692 2 1 ack 40 ------- 1 3.0 1.0 27 72
- 0.5692 2 1 ack 40 ------- 1 3.0 1.0 27 72
r 0.5712 2 1 ack 40 ------- 1 3.0 1.0 26 70
+ 0.5712 1 2 tcp 1040 ------- 1 1.0 3.0 46 75
- 0.57216 1 2 tcp 1040 ------- 1 1.0 3.0 33 52
r 0.57384 1 2 tcp 1040 ------- 1 1.0 3.0 31 49
+ 0.57384 2 3 tcp 1040 ------- 1 1.0 3.0 31 49
- 0.57384 2 3 tcp 1040 ------- 1 1.0 3.0 31 49
r 0.57552 2 3 tcp 1040 ------- 1 1.0 3.0 29 46
+ 0.57552 3 2 ack 40 ------- 1 3.0 1.0 29 76
- 0.57552 3 2 ack 40 ------- 1 3.0 1.0 29 76
r 0.57752 3 2 ack 40 ------- 1 3.0 1.0 28 74
+ 0.57752 2 1 ack 40 ------- 1 3.0 1.0 28 74
- 0.57752 2 1 ack 40 ------- 1 3.0 1.0 28 74
r 0.57952 2 1 ack 40 ------- 1 3.0 1.0 27 72
+ 0.57952 1 2 tcp 1040 ------- 1 1.0 3.0 47 77
- 0.58048 1 2 tcp 1040 ------- 1 1.0 3.0 34 53
r 0.58216 1 2 tcp 1040 ------- 1 1.0 3.0 32 50
+ 0.58216 2 3 tcp 1040 ------- 1 1.0 3.0 32 50
- 0.58216 2 3 tcp 1040 ------- 1 1.0 3.0 32 50
r 0.58384 2 3 tcp 1040 ------- 1 1.0 3.0 30 47
+ 0.58384 3 2 ack 40 ------- 1 3.0 1.0 30 78
- 0.58384 3 2 ack 40 ------- 1 3.0 1.0 30 78
r 0.58584 3 2 ack 40 ------- 1 3.0 1.0 29 76
+ 0.58584 2 1 ack 40 ------- 1 3.0 1.0 29 76
- 0.58584 2 1 ack 40 ------- 1 3.0 1.0 29 76
r 0.58784 2 1 ack 40 ------- 1 3.0 1.0 28 74
+ 0.58784 1 2 tcp 1040 ------- 1 1.0 3.0 48 79
- 0.5888 1 2 tcp 1040 ------- 1 1.0 3.0 35 55
r 0.59048 1 2 tcp 1040 ------- 1 1.0 3.0 33 52
+ 0.59048 2 3 tcp 1040 ------- 1 1.0 3.0 33 52
- 0.59048 2 3 tcp 1040 ------- 1 1.0 3.0 33 52
r 0.59216 2 3 tcp 1040 ------- 1 1.0 3.0 31 49
+ 0.59216 3 2 ack 40 ------- 1 3.0 1.0 31 80
- 0.59216 3 2 ack 40 ------- 1 3.0 1.0 31 80
r 0.59416 3 2 ack 40 ------- 1 3.0 1.0 30 78
+ 0.59416 2 1 ack 40 ------- 1 3.0 1.0 30 78
- 0.59416 2 1 ack 40 ------- 1 3.0 1.0 30 78
r 0.59616 2 1 ack 40 ------- 1 3.0 1.0 29 76
+ 0.59616 1 2 tcp 1040 ------- 1 1.0 3.0 49 81
- 0.59712 1 2 tcp 1040 ------- 1 1.0 3.0 36 56
r 0.5988 1 2 tcp 1040 ------- 1 1.0 3.0 34 53
+ 0.5988 2 3 tcp 1040 ------- 1 1.0 3.0 34 53
- 0.5988 2 3 tcp 1040 ------- 1 1.0 3.0 34 53
+ 0.6 4 3 tcp 40 ------- 2 4.0 2.0 0 82
- 0.6 4 3 tcp 40 ------- 2 4.0 2.0 0 82
r 0.60048 2 3 tcp 1040 ------- 1 1.0 3.0 32 50
+ 0.60048 3 2 ack 40 ------- 1 3.0 1.0 32 83
- 0.60048 3 2 ack 40 ------- 1 3.0 1.0 32 83
r 0.60248 3 2 ack 40 ------- 1 3.0 1.0 31 80
+ 0.60248 2 1 ack 40 ------- 1 3.0 1.0 31 80
- 0.60248 2 1 ack 40 ------- 1 3.0 1.0 31 80
r 0.60448 2 1 ack 40 ------- 1 3.0 1.0 30 78
+ 0.60448 1 2 tcp 1040 ------- 1 1.0 3.0 50 84
- 0.60544 1 2 tcp 1040 ------- 1 1.0 3.0 37 58
r 0.60712 1 2 tcp 1040 ------- 1 1.0 3.0 35 55
+ 0.60712 2 3 tcp 1040 ------- 1 1.0 3.0 35 55
- 0.60712 2 3 tcp 1040 ------- 1 1.0 3.0 35 55
r 0.6088 2 3 tcp 1040 ------- 1 1.0 3.0 33 52
+ 0.6088 3 2 ack 40 ------- 1 3.0 1.0 33 85
- 0.6088 3 2 ack 40 ------- 1 3.0 1.0 33 85
r 0.61032 4 3 tcp 40 ------- 2 4.0 2.0 0 82
+ 0.61032 3 2 tcp 40 ------- 2 4.0 2.0 0 82
- 0.61032 3 2 tcp 40 ------- 2 4.0 2.0 0 82
r 0.6108 3 2 ack 40 ------- 1 3.0 1.0 32 83
+ 0.6108 2 1 ack 40 ------- 1 3.0 1.0 32 83
- 0.6108 2 1 ack 40 ------- 1 3.0 1.0 32 83
r 0.6128 2 1 ack 40 ------- 1 3.0 1.0 31 80
+ 0.6128 1 2 tcp 1040 ------- 1 1.0 3.0 51 86
- 0.61376 1 2 tcp 1040 ------- 1 1.0 3.0 38 59
r 0.61544 1 2 tcp 1040 ------- 1 1.0 3.0 36 56
+ 0.61544 2 3 tcp 1040 ------- 1 1.0 3.0 36 56
- 0.61544 2 3 tcp 1040 ------- 1 1.0 3.0 36 56
r 0.61712 2 3 tcp 1040 ------- 1 1.0 3.0 34 53
+ 0.61712 3 2 ack 40 ------- 1 3.0 1.0 34 87
- 0.61712 3 2 ack 40 ------- 1 3.0 1.0 34 87
r 0.61912 3 2 ack 40 ------- 1 3.0 1.0 33 85
+ 0.61912 2 1 ack 40 ------- 1 3.0 1.0 33 85
- 0.61912 2 1 ack 40 ------- 1 3.0 1.0 33 85
r 0.62064 3 2 tcp 40 ------- 2 4.0 2.0 0 82
+ 0.62064 2 3 ack 40 ------- 2 2.0 4.0 0 88
r 0.62112 2 1 ack 40 ------- 1 3.0 1.0 32 83
+ 0.62112 1 2 tcp 1040 ------- 1 1.0 3.0 52 89
- 0.62208 1 2 tcp 1040 ------- 1 1.0 3.0 39 61
r 0.62376 1 2 tcp 1040 ------- 1 1.0 3.0 37 58
+ 0.62376 2 3 tcp 1040 ------- 1 1.0 3.0 37 58
- 0.62376 2 3 ack 40 ------- 2 2.0 4.0 0 88
- 0.62408 2 3 tcp 1040 ------- 1 1.0 3.0 37 58
r 0.62544 2 3 tcp 1040 ------- 1 1.0 3.0 35 55
+ 0.62544 3 2 ack 40 ------- 1 3.0 1.0 35 90
- 0.62544 3 2 ack 40 ------- 1 3.0 1.0 35 90
r 0.62744 3 2 ack 40 ------- 1 3.0 1.0 34 87
+ 0.62744 2 1 ack 40 ------- 1 3.0 1.0 34 87
- 0.62744 2 1 ack 40 ------- 1 3.0 1.0 34 87
r 0.62944 2 1 ack 40 ------- 1 3.0 1.0 33 85
+ 0.62944 1 2 tcp 1040 ------- 1 1.0 3.0 53 91
- 0.6304 1 2 tcp 1040 ------- 1 1.0 3.0 40 63
r 0.63208 1 2 tcp 1040 ------- 1 1.0 3.0 38 59
+ 0.63208 2 3 tcp 1040 ------- 1 1.0 3.0 38 59
- 0.6324 2 3 tcp 1040 ------- 1 1.0 3.0 38 59
r 0.63376 2 3 tcp 1040 ------- 1 1.0 3.0 36 56
+ 0.63376 3 2 ack 40 ------- 1 3.0 1.0 36 92
- 0.63376 3 2 ack 40 ------- 1 3.0 1.0 36 92
r 0.63408 2 3 ack 40 ------- 2 2.0 4.0 0 88
+ 0.63408 3 4 ack 40 ------- 2 2.0 4.0 0 88
- 0.63408 3 4 ack 40 ------- 2 2.0 4.0 0 88
r 0.63576 3 2 ack 40 ------- 1 3.0 1.0 35 90
+ 0.63576 2 1 ack 40 ------- 1 3.0 1.0 35 90
- 0.63576 2 1 ack 40 ------- 1 3.0 1.0 35 90
r 0.63776 2 1 ack 40 ------- 1 3.0 1.0 34 87
+ 0.63776 1 2 tcp 1040 ------- 1 1.0 3.0 54 93
- 0.63872 1 2 tcp 1040 ------- 1 1.0 3.0 41 65
r 0.6404 1 2 tcp 1040 ------- 1 1.0 3.0 39 61
+ 0.6404 2 3 tcp 1040 ------- 1 1.0 3.0 39 61
- 0.64072 2 3 tcp 1040 ------- 1 1.0 3.0 39 61
r 0.6424 2 3 tcp 1040 ------- 1 1.0 3.0 37 58
+ 0.6424 3 2 ack 40 ------- 1 3.0 1.0 37 94
- 0.6424 3 2 ack 40 ------- 1 3.0 1.0 37 94
r 0.64408 3 2 ack 40 ------- 1 3.0 1.0 36 92
+ 0.64408 2 1 ack 40 ------- 1 3.0 1.0 36 92
- 0.64408 2 1 ack 40 ------- 1 3.0 1.0 36 92
r 0.6444 3 4 ack 40 ------- 2 2.0 4.0 0 88
+ 0.6444 4 3 tcp 1040 ------- 2 4.0 2.0 1 95
- 0.6444 4 3 tcp 1040 ------- 2 4.0 2.0 1 95
+ 0.6444 4 3 tcp 1040 ------- 2 4.0 2.0 2 96
r 0.64608 2 1 ack 40 ------- 1 3.0 1.0 35 90
+ 0.64608 1 2 tcp 1040 ------- 1 1.0 3.0 55 97
- 0.64704 1 2 tcp 1040 ------- 1 1.0 3.0 42 67
r 0.64872 1 2 tcp 1040 ------- 1 1.0 3.0 40 63
+ 0.64872 2 3 tcp 1040 ------- 1 1.0 3.0 40 63
- 0.64904 2 3 tcp 1040 ------- 1 1.0 3.0 40 63
r 0.65072 2 3 tcp 1040 ------- 1 1.0 3.0 38 59
+ 0.65072 3 2 ack 40 ------- 1 3.0 1.0 38 98
- 0.65072 3 2 ack 40 ------- 1 3.0 1.0 38 98
r 0.65272 3 2 ack 40 ------- 1 3.0 1.0 37 94
+ 0.65272 2 1 ack 40 ------- 1 3.0 1.0 37 94
- 0.65272 2 1 ack 40 ------- 1 3.0 1.0 37 94
- 0.65272 4 3 tcp 1040 ------- 2 4.0 2.0 2 96
r 0.6544 2 1 ack 40 ------- 1 3.0 1.0 36 92
+ 0.6544 1 2 tcp 1040 ------- 1 1.0 3.0 56 99
- 0.65536 1 2 tcp 1040 ------- 1 1.0 3.0 43 69
r 0.65704 1 2 tcp 1040 ------- 1 1.0 3.0 41 65
+ 0.65704 2 3 tcp 1040 ------- 1 1.0 3.0 41 65
- 0.65736 2 3 tcp 1040 ------- 1 1.0 3.0 41 65
r 0.65904 2 3 tcp 1040 ------- 1 1.0 3.0 39 61
+ 0.65904 3 2 ack 40 ------- 1 3.0 1.0 39 100
- 0.65904 3 2 ack 40 ------- 1 3.0 1.0 39 100
r 0.66104 3 2 ack 40 ------- 1 3.0 1.0 38 98
+ 0.66104 2 1 ack 40 ------- 1 3.0 1.0 38 98
- 0.66104 2 1 ack 40 ------- 1 3.0 1.0 38 98
r 0.66272 4 3 tcp 1040 ------- 2 4.0 2.0 1 95
+ 0.66272 3 2 tcp 1040 ------- 2 4.0 2.0 1 95
- 0.66272 3 2 tcp 1040 ------- 2 4.0 2.0 1 95
r 0.66304 2 1 ack 40 ------- 1 3.0 1.0 37 94
+ 0.66304 1 2 tcp 1040 ------- 1 1.0 3.0 57 101
- 0.66368 1 2 tcp 1040 ------- 1 1.0 3.0 44 71
r 0.66536 1 2 tcp 1040 ------- 1 1.0 3.0 42 67
+ 0.66536 2 3 tcp 1040 ------- 1 1.0 3.0 42 67
- 0.66568 2 3 tcp 1040 ------- 1 1.0 3.0 42 67
r 0.66736 2 3 tcp 1040 ------- 1 1.0 3.0 40 63
+ 0.66736 3 2 ack 40 ------- 1 3.0 1.0 40 102
r 0.66936 3 2 ack 40 ------- 1 3.0 1.0 39 100
+ 0.66936 2 1 ack 40 ------- 1 3.0 1.0 39 100
- 0.66936 2 1 ack 40 ------- 1 3.0 1.0 39 100
r 0.67104 4 3 tcp 1040 ------- 2 4.0 2.0 2 96
+ 0.67104 3 2 tcp 1040 ------- 2 4.0 2.0 2 96
- 0.67104 3 2 ack 40 ------- 1 3.0 1.0 40 102
r 0.67136 2 1 ack 40 ------- 1 3.0 1.0 38 98
+ 0.67136 1 2 tcp 1040 ------- 1 1.0 3.0 58 103
- 0.67136 3 2 tcp 1040 ------- 2 4.0 2.0 2 96
- 0.672 1 2 tcp 1040 ------- 1 1.0 3.0 45 73
r 0.67368 1 2 tcp 1040 ------- 1 1.0 3.0 43 69
+ 0.67368 2 3 tcp 1040 ------- 1 1.0 3.0 43 69
- 0.674 2 3 tcp 1040 ------- 1 1.0 3.0 43 69
r 0.67568 2 3 tcp 1040 ------- 1 1.0 3.0 41 65
+ 0.67568 3 2 ack 40 ------- 1 3.0 1.0 41 104
r 0.67968 2 1 ack 40 ------- 1 3.0 1.0 39 100
+ 0.67968 1 2 tcp 1040 ------- 1 1.0 3.0 59 105
- 0.67968 3 2 ack 40 ------- 1 3.0 1.0 41 104
- 0.68032 1 2 tcp 1040 ------- 1 1.0 3.0 46 75
r 0.68104 3 2 tcp 1040 ------- 2 4.0 2.0 1 95
+ 0.68104 2 3 ack 40 ------- 2 2.0 4.0 1 106
r 0.68136 3 2 ack 40 ------- 1 3.0 1.0 40 102
+ 0.68136 2 1 ack 40 ------- 1 3.0 1.0 40 102
- 0.68136 2 1 ack 40 ------- 1 3.0 1.0 40 102
r 0.682 1 2 tcp 1040 ------- 1 1.0 3.0 44 71
+ 0.682 2 3 tcp 1040 ------- 1 1.0 3.0 44 71
- 0.68232 2 3 ack 40 ------- 2 2.0 4.0 1 106
- 0.68264 2 3 tcp 1040 ------- 1 1.0 3.0 44 71
r 0.684 2 3 tcp 1040 ------- 1 1.0 3.0 42 67
+ 0.684 3 2 ack 40 ------- 1 3.0 1.0 42 107
- 0.684 3 2 ack 40 ------- 1 3.0 1.0 42 107
- 0.68864 1 2 tcp 1040 ------- 1 1.0 3.0 47 77
r 0.68968 3 2 tcp 1040 ------- 2 4.0 2.0 2 96
+ 0.68968 2 3 ack 40 ------- 2 2.0 4.0 2 108
r 0.69 3 2 ack 40 ------- 1 3.0 1.0 41 104
+ 0.69 2 1 ack 40 ------- 1 3.0 1.0 41 104
- 0.69 2 1 ack 40 ------- 1 3.0 1.0 41 104
r 0.69032 1 2 tcp 1040 ------- 1 1.0 3.0 45 73
+ 0.69032 2 3 tcp 1040 ------- 1 1.0 3.0 45 73
- 0.69096 2 3 ack 40 ------- 2 2.0 4.0 2 108
- 0.69128 2 3 tcp 1040 ------- 1 1.0 3.0 45 73
r 0.69168 2 1 ack 40 ------- 1 3.0 1.0 40 102
+ 0.69168 1 2 tcp 1040 ------- 1 1.0 3.0 60 109
r 0.69232 2 3 tcp 1040 ------- 1 1.0 3.0 43 69
+ 0.69232 3 2 ack 40 ------- 1 3.0 1.0 43 110
- 0.69232 3 2 ack 40 ------- 1 3.0 1.0 43 110
r 0.69264 2 3 ack 40 ------- 2 2.0 4.0 1 106
+ 0.69264 3 4 ack 40 ------- 2 2.0 4.0 1 106
- 0.69264 3 4 ack 40 ------- 2 2.0 4.0 1 106
r 0.69432 3 2 ack 40 ------- 1 3.0 1.0 42 107
+ 0.69432 2 1 ack 40 ------- 1 3.0 1.0 42 107
- 0.69432 2 1 ack 40 ------- 1 3.0 1.0 42 107
- 0.69696 1 2 tcp 1040 ------- 1 1.0 3.0 48 79
r 0.69864 1 2 tcp 1040 ------- 1 1.0 3.0 46 75
+ 0.69864 2 3 tcp 1040 ------- 1 1.0 3.0 46 75
- 0.6996 2 3 tcp 1040 ------- 1 1.0 3.0 46 75
r 0.70032 2 1 ack 40 ------- 1 3.0 1.0 41 104
+ 0.70032 1 2 tcp 1040 ------- 1 1.0 3.0 61 111
r 0.70096 2 3 tcp 1040 ------- 1 1.0 3.0 44 71
+ 0.70096 3 2 ack 40 ------- 1 3.0 1.0 44 112
- 0.70096 3 2 ack 40 ------- 1 3.0 1.0 44 112
r 0.70128 2 3 ack 40 ------- 2 2.0 4.0 2 108
+ 0.70128 3 4 ack 40 ------- 2 2.0 4.0 2 108
- 0.70128 3 4 ack 40 ------- 2 2.0 4.0 2 108
r 0.70264 3 2 ack 40 ------- 1 3.0 1.0 43 110
+ 0.70264 2 1 ack 40 ------- 1 3.0 1.0 43 110
- 0.70264 2 1 ack 40 ------- 1 3.0 1.0 43 110
r 0.70296 3 4 ack 40 ------- 2 2.0 4.0 1 106
+ 0.70296 4 3 tcp 1040 ------- 2 4.0 2.0 3 113
- 0.70296 4 3 tcp 1040 ------- 2 4.0 2.0 3 113
+ 0.70296 4 3 tcp 1040 ------- 2 4.0 2.0 4 114
r 0.70464 2 1 ack 40 ------- 1 3.0 1.0 42 107
+ 0.70464 1 2 tcp 1040 ------- 1 1.0 3.0 62 115
- 0.70528 1 2 tcp 1040 ------- 1 1.0 3.0 49 81
r 0.70696 1 2 tcp 1040 ------- 1 1.0 3.0 47 77
+ 0.70696 2 3 tcp 1040 ------- 1 1.0 3.0 47 77
- 0.70792 2 3 tcp 1040 ------- 1 1.0 3.0 47 77
r 0.7096 2 3 tcp 1040 ------- 1 1.0 3.0 45 73
+ 0.7096 3 2 ack 40 ------- 1 3.0 1.0 45 116
- 0.7096 3 2 ack 40 ------- 1 3.0 1.0 45 116
r 0.71128 3 2 ack 40 ------- 1 3.0 1.0 44 112
+ 0.71128 2 1 ack 40 ------- 1 3.0 1.0 44 112
- 0.71128 2 1 ack 40 ------- 1 3.0 1.0 44 112
- 0.71128 4 3 tcp 1040 ------- 2 4.0 2.0 4 114
r 0.7116 3 4 ack 40 ------- 2 2.0 4.0 2 108
+ 0.7116 4 3 tcp 1040 ------- 2 4.0 2.0 5 117
+ 0.7116 4 3 tcp 1040 ------- 2 4.0 2.0 6 118
r 0.71296 2 1 ack 40 ------- 1 3.0 1.0 43 110
+ 0.71296 1 2 tcp 1040 ------- 1 1.0 3.0 63 119
- 0.7136 1 2 tcp 1040 ------- 1 1.0 3.0 50 84
r 0.71528 1 2 tcp 1040 ------- 1 1.0 3.0 48 79
+ 0.71528 2 3 tcp 1040 ------- 1 1.0 3.0 48 79
- 0.71624 2 3 tcp 1040 ------- 1 1.0 3.0 48 79
r 0.71792 2 3 tcp 1040 ------- 1 1.0 3.0 46 75
+ 0.71792 3 2 ack 40 ------- 1 3.0 1.0 46 120
- 0.71792 3 2 ack 40 ------- 1 3.0 1.0 46 120
- 0.7196 4 3 tcp 1040 ------- 2 4.0 2.0 5 117
r 0.71992 3 2 ack 40 ------- 1 3.0 1.0 45 116
+ 0.71992 2 1 ack 40 ------- 1 3.0 1.0 45 116
- 0.71992 2 1 ack 40 ------- 1 3.0 1.0 45 116
r 0.72128 4 3 tcp 1040 ------- 2 4.0 2.0 3 113
+ 0.72128 3 2 tcp 1040 ------- 2 4.0 2.0 3 113
- 0.72128 3 2 tcp 1040 ------- 2 4.0 2.0 3 113
r 0.7216 2 1 ack 40 ------- 1 3.0 1.0 44 112
+ 0.7216 1 2 tcp 1040 ------- 1 1.0 3.0 64 121
- 0.72192 1 2 tcp 1040 ------- 1 1.0 3.0 51 86
r 0.7236 1 2 tcp 1040 ------- 1 1.0 3.0 49 81
+ 0.7236 2 3 tcp 1040 ------- 1 1.0 3.0 49 81
- 0.72456 2 3 tcp 1040 ------- 1 1.0 3.0 49 81
r 0.72624 2 3 tcp 1040 ------- 1 1.0 3.0 47 77
+ 0.72624 3 2 ack 40 ------- 1 3.0 1.0 47 122
- 0.72792 4 3 tcp 1040 ------- 2 4.0 2.0 6 118
r 0.72824 3 2 ack 40 ------- 1 3.0 1.0 46 120
+ 0.72824 2 1 ack 40 ------- 1 3.0 1.0 46 120
- 0.72824 2 1 ack 40 ------- 1 3.0 1.0 46 120
r 0.7296 4 3 tcp 1040 ------- 2 4.0 2.0 4 114
+ 0.7296 3 2 tcp 1040 ------- 2 4.0 2.0 4 114
- 0.7296 3 2 ack 40 ------- 1 3.0 1.0 47 122
- 0.72992 3 2 tcp 1040 ------- 2 4.0 2.0 4 114
r 0.73024 2 1 ack 40 ------- 1 3.0 1.0 45 116
+ 0.73024 1 2 tcp 1040 ------- 1 1.0 3.0 65 123
- 0.73024 1 2 tcp 1040 ------- 1 1.0 3.0 52 89
r 0.73192 1 2 tcp 1040 ------- 1 1.0 3.0 50 84
+ 0.73192 2 3 tcp 1040 ------- 1 1.0 3.0 50 84
- 0.73288 2 3 tcp 1040 ------- 1 1.0 3.0 50 84
r 0.73456 2 3 tcp 1040 ------- 1 1.0 3.0 48 79
+ 0.73456 3 2 ack 40 ------- 1 3.0 1.0 48 124
r 0.73792 4 3 tcp 1040 ------- 2 4.0 2.0 5 117
+ 0.73792 3 2 tcp 1040 ------- 2 4.0 2.0 5 117
- 0.73824 3 2 ack 40 ------- 1 3.0 1.0 48 124