V -t * -v 1.0a5 -a 0
A -t * -n 1 -p 0 -o 0x7fffffff -c 30 -a 1
A -t * -h 1 -m 1073741823 -s 0
c -t * -i 1 -n blue
c -t * -i 2 -n red
n -t * -a 4 -s 4 -S UP -v circle -c black -i black
n -t * -a 0 -s 0 -S UP -v circle -c black -i black
n -t * -a 1 -s 1 -S UP -v circle -c black -i black
n -t * -a 2 -s 2 -S UP -v circle -c black -i black
n -t * -a 3 -s 3 -S UP -v circle -c black -i black
l -t * -s 0 -d 1 -S UP -r 1000000 -D 0.01 -c black
l -t * -s 1 -d 2 -S UP -r 1000000 -D 0.01 -c black
l -t * -s 2 -d 3 -S UP -r 1000000 -D 0.01 -c black
l -t * -s 3 -d 4 -S UP -r 1000000 -D 0.01 -c black
l -t * -s 4 -d 0 -S UP -r 1000000 -D 0.01 -c black
+ -t 0.2 -s 1 -d 2 -p tcp -e 40 -c 1 -i 0 -a 1 -x {1.0 3.0 0 ------- null}
- -t 0.2 -s 1 -d 2 -p tcp -e 40 -c 1 -i 0 -a 1 -x {1.0 3.0 0 ------- null}
h -t 0.2 -s 1 -d 2 -p tcp -e 40 -c 1 -i 0 -a 1 -x {1.0 3.0 -1 ------- null}
r -t 0.21032 -s 1 -d 2 -p tcp -e 40 -c 1 -i 0 -a 1 -x {1.0 3.0 0 ------- null}
+ -t 0.21032 -s 2 -d 3 -p tcp -e 40 -c 1 -i 0 -a 1 -x {1.0 3.0 0 ------- null}
- -t 0.21032 -s 2 -d 3 -p tcp -e 40 -c 1 -i 0 -a 1 -x {1.0 3.0 0 ------- null}
h -t 0.21032 -s 2 -d 3 -p tcp -e 40 -c 1 -i 0 -a 1 -x {1.0 3.0 -1 ------- null}
r -t 0.22064 -s 2 -d 3 -p tcp -e 40 -c 1 -i 0 -a 1 -x {1.0 3.0 0 ------- null}
+ -t 0.22064 -s 3 -d 2 -p ack -e 40 -c 1 -i 1 -a 1 -x {3.0 1.0 0 ------- null}
- -t 0.22064 -s 3 -d 2 -p ack -e 40 -c 1 -i 1 -a 1 -x {3.0 1.0 0 ------- null}
h -t 0.22064 -s 3 -d 2 -p ack -e 40 -c 1 -i 1 -a 1 -x {3.0 1.0 -1 ------- null}
r -t 0.23096 -s 3 -d 2 -p ack -e 40 -c 1 -i 1 -a 1 -x {3.0 1.0 0 ------- null}
+ -t 0.23096 -s 2 -d 1 -p ack -e 40 -c 1 -i 1 -a 1 -x {3.0 1.0 0 ------- null}
- -t 0.23096 -s 2 -d 1 -p ack -e 40 -c 1 -i 1 -a 1 -x {3.0 1.0 0 ------- null}
h -t 0.23096 -s 2 -d 1 -p ack -e 40 -c 1 -i 1 -a 1 -x {3.0 1.0 -1 ------- null}
r -t 0.24128 -s 2 -d 1 -p ack -e 40 -c 1 -i 1 -a 1 -x {3.0 1.0 0 ------- null}
+ -t 0.24128 -s 1 -d 2 -p tcp -e 1040 -c 1 -i 2 -a 1 -x {1.0 3.0 1 ------- null}
- -t 0.24128 -s 1 -d 2 -p tcp -e 1040 -c 1 -i 2 -a 1 -x {1.0 3.0 1 ------- null}
h -t 0.24128 -s 1 -d 2 -p tcp -e 1040 -c 1 -i 2 -a 1 -x {1.0 3.0 -1 ------- null}
+ -t 0.24128 -s 1 -d 2 -p tcp -e 1040 -c 1 -i 3 -a 1 -x {1.0 3.0 2 ------- null}
- -t 0.2496 -s 1 -d 2 -p tcp -e 1040 -c 1 -i 3 -a 1 -x {1.0 3.0 2 ------- null}
h -t 0.2496 -s 1 -d 2 -p tcp -e 1040 -c 1 -i 3 -a 1 -x {1.0 3.0 -1 ------- null}
r -t 0.2596 -s 1 -d 2 -p tcp -e 1040 -c 1 -i 2 -a 1 -x {1.0 3.0 1 ------- null}
+ -t 0.2596 -s 2 -d 3 -p tcp -e 1040 -c 1 -i 2 -a 1 -x {1.0 3.0 1 ------- null}
- -t 0.2596 -s 2 -d 3 -p tcp -e 1040 -c 1 -i 2 -a 1 -x {1.0 3.0 1 ------- null}
h -t 0.2596 -s 2 -d 3 -p tcp -e 1040 -c 1 -i 2 -a 1 -x {1.0 3.0 -1 ------- null}
r -t 0.26792 -s 1 -d 2 -p tcp -e 1040 -c 1 -i 3 -a 1 -x {1.0 3.0 2 ------- null}
+ -t 0.26792 -s 2 -d 3 -p tcp -e 1040 -c 1 -i 3 -a 1 -x {1.0 3.0 2 ------- null}
- -t 0.26792 -s 2 -d 3 -p tcp -e 1040 -c 1 -i 3 -a 1 -x {1.0 3.0 2 ------- null}
h -t 0.26792 -s 2 -d 3 -p tcp -e 1040 -c 1 -i 3 -a 1 -x {1.0 3.0 -1 ------- null}
r -t 0.27792 -s 2 -d 3 -p tcp -e 1040 -c 1 -i 2 -a 1 -x {1.0 3.0 1 ------- null}
+ -t 0.27792 -s 3 -d 2 -p ack -e 40 -c 1 -i 4 -a 1 -x {3.0 1.0 1 ------- null}
- -t 0.27792 -s 3 -d 2 -p ack -e 40 -c 1 -i 4 -a 1 -x {3.0 1.0 1 ------- null}
h -t 0.27792 -s 3 -d 2 -p ack -e 40 -c 1 -i 4 -a 1 -x {3.0 1.0 -1 ------- null}
r -t 0.28624 -s 2 -d 3 -p tcp -e 1040 -c 1 -i 3 -a 1 -x {1.0 3.0 2 ------- null}
+ -t 0.28624 -s 3 -d 2 -p ack -e 40 -c 1 -i 5 -a 1 -x {3.0 1.0 2 ------- null}
- -t 0.28624 -s 3 -d 2 -p ack -e 40 -c 1 -i 5 -a 1 -x {3.0 1.0 2 ------- null}
h -t 0.28624 -s 3 -d 2 -p ack -e 40 -c 1 -i 5 -a 1 -x {3.0 1.0 -1 ------- null}
r -t 0.28824 -s 3 -d 2 -p ack -e 40 -c 1 -i 4 -a 1 -x {3.0 1.0 1 ------- null}
+ -t 0.28824 -s 2 -d 1 -p ack -e 40 -c 1 -i 4 -a 1 -x {3.0 1.0 1 ------- null}
- -t 0.28824 -s 2 -d 1 -p ack -e 40 -c 1 -i 4 -a 1 -x {3.0 1.0 1 ------- null}
h -t 0.28824 -s 2 -d 1 -p ack -e 40 -c 1 -i 4 -a 1 -x {3.0 1.0 -1 ------- null}
r -t 0.29656 -s 3 -d 2 -p ack -e 40 -c 1 -i 5 -a 1 -x {3.0 1.0 2 ------- null}
+ -t 0.29656 -s 2 -d 1 -p ack -e 40 -c 1 -i 5 -a 1 -x {3.0 1.0 2 ------- null}
- -t 0.29656 -s 2 -d 1 -p ack -e 40 -c 1 -i 5 -a 1 -x {3.0 1.0 2 ------- null}
h -t 0.29656 -s 2 -d 1 -p ack -e 40 -c 1 -i 5 -a 1 -x {3.0 1.0 -1 ------- null}
r -t 0.29856 -s 2 -d 1 -p ack -e 40 -c 1 -i 4 -a 1 -x {3.0 1.0 1 ------- null}
+ -t 0.29856 -s 1 -d 2 -p tcp -e 1040 -c 1 -i 6 -a 1 -x {1.0 3.0 3 ------- null}
- -t 0.29856 -s 1 -d 2 -p tcp -e 1040 -c 1 -i 6 -a 1 -x {1.0 3.0 3 ------- null}
h -t 0.29856 -s 1 -d 2 -p tcp -e 1040 -c 1 -i 6 -a 1 -x {1.0 3.0 -1 ------- null}
+ -t 0.29856 -s 1 -d 2 -p tcp -e 1040 -c 1 -i 7 -a 1 -x {1.0 3.0 4 ------- null}
r -t 0.30688 -s 2 -d 1 -p ack -e 40 -c 1 -i 5 -a 1 -x {3.0 1.0 2 ------- null}
+ -t 0.30688 -s 1 -d 2 -p tcp -e 1040 -c 1 -i 8 -a 1 -x {1.0 3.0 5 ------- null}
+ -t 0.30688 -s 1 -d 2 -p tcp -e 1040 -c 1 -i 9 -a 1 -x {1.0 3.0 6 ------- null}
- -t 0.30688 -s 1 -d 2 -p tcp -e 1040 -c 1 -i 7 -a 1 -x {1.0 3.0 4 ------- null}
h -t 0.30688 -s 1 -d 2 -p tcp -e 1040 -c 1 -i 7 -a 1 -x {1.0 3.0 -1 ------- null}
- -t 0.3152 -s 1 -d 2 -p tcp -e 1040 -c 1 -i 8 -a 1 -x {1.0 3.0 5 ------- null}
h -t 0.3152 -s 1 -d 2 -p tcp -e 1040 -c 1 -i 8 -a 1 -x {1.0 3.0 -1 ------- null}
r -t 0.31688 -s 1 -d 2 -p tcp -e 1040 -c 1 -i 6 -a 1 -x {1.0 3.0 3 ------- null}
+ -t 0.31688 -s 2 -d 3 -p tcp -e 1040 -c 1 -i 6 -a 1 -x {1.0 3.0 3 ------- null}
- -t 0.31688 -s 2 -d 3 -p tcp -e 1040 -c 1 -i 6 -a 1 -x {1.0 3.0 3 ------- null}
h -t 0.31688 -s 2 -d 3 -p tcp -e 1040 -c 1 -i 6 -a 1 -x {1.0 3.0 -1 ------- null}
- -t 0.32352 -s 1 -d 2 -p tcp -e 1040 -c 1 -i 9 -a 1 -x {1.0 3.0 6 ------- null}
h -t 0.32352 -s 1 -d 2 -p tcp -e 1040 -c 1 -i 9 -a 1 -x {1.0 3.0 -1 ------- null}
r -t 0.3252 -s 1 -d 2 -p tcp -e 1040 -c 1 -i 7 -a 1 -x {1.0 3.0 4 ------- null}
+ -t 0.3252 -s 2 -d 3 -p tcp -e 1040 -c 1 -i 7 -a 1 -x {1.0 3.0 4 ------- null}
- -t 0.3252 -s 2 -d 3 -p tcp -e 1040 -c 1 -i 7 -a 1 -x {1.0 3.0 4 ------- null}
h -t 0.3252 -s 2 -d 3 -p tcp -e 1040 -c 1 -i 7 -a 1 -x {1.0 3.0 -1 ------- null}
r -t 0.33352 -s 1 -d 2 -p tcp -e 1040 -c 1 -i 8 -a 1 -x {1.0 3.0 5 ------- null}
+ -t 0.33352 -s 2 -d 3 -p tcp -e 1040 -c 1 -i 8 -a 1 -x {1.0 3.0 5 ------- null}
- -t 0.33352 -s 2 -d 3 -p tcp -e 1040 -c 1 -i 8 -a 1 -x {1.0 3.0 5 ------- null}
h -t 0.33352 -s 2 -d 3 -p tcp -e 1040 -c 1 -i 8 -a 1 -x {1.0 3.0 -1 ------- null}
r -t 0.3352 -s 2 -d 3 -p tcp -e 1040 -c 1 -i 6 -a 1 -x {1.0 3.0 3 ------- null}
+ -t 0.3352 -s 3 -d 2 -p ack -e 40 -c 1 -i 10 -a 1 -x {3.0 1.0 3 ------- null}
- -t 0.3352 -s 3 -d 2 -p ack -e 40 -c 1 -i 10 -a 1 -x {3.0 1.0 3 ------- null}
h -t 0.3352 -s 3 -d 2 -p ack -e 40 -c 1 -i 10 -a 1 -x {3.0 1.0 -1 ------- null}
r -t 0.34184 -s 1 -d 2 -p tcp -e 1040 -c 1 -i 9 -a 1 -x {1.0 3.0 6 ------- null}
+ -t 0.34184 -s 2 -d 3 -p tcp -e 1040 -c 1 -i 9 -a 1 -x {1.0 3.0 6 ------- null}
- -t 0.34184 -s 2 -d 3 -p tcp -e 1040 -c 1 -i 9 -a 1 -x {1.0 3.0 6 ------- null}
h -t 0.34184 -s 2 -d 3 -p tcp -e 1040 -c 1 -i 9 -a 1 -x {1.0 3.0 -1 ------- null}
r -t 0.34352 -s 2 -d 3 -p tcp -e 1040 -c 1 -i 7 -a 1 -x {1.0 3.0 4 ------- null}
+ -t 0.34352 -s 3 -d 2 -p ack -e 40 -c 1 -i 11 -a 1 -x {3.0 1.0 4 ------- null}
- -t 0.34352 -s 3 -d 2 -p ack -e 40 -c 1 -i 11 -a 1 -x {3.0 1.0 4 ------- null}
h -t 0.34352 -s 3 -d 2 -p ack -e 40 -c 1 -i 11 -a 1 -x {3.0 1.0 -1 ------- null}
r -t 0.34552 -s 3 -d 2 -p ack -e 40 -c 1 -i 10 -a 1 -x {3.0 1.0 3 ------- null}
+ -t 0.34552 -s 2 -d 1 -p ack -e 40 -c 1 -i 10 -a 1 -x {3.0 1.0 3 ------- null}
- -t 0.34552 -s 2 -d 1 -p ack -e 40 -c 1 -i 10 -a 1 -x {3.0 1.0 3 ------- null}
h -t 0.34552 -s 2 -d 1 -p ack -e 40 -c 1 -i 10 -a 1 -x {3.0 1.0 -1 ------- null}
r -t 0.35184 -s 2 -d 3 -p tcp -e 1040 -c 1 -i 8 -a 1 -x {1.0 3.0 5 ------- null}
+ -t 0.35184 -s 3 -d 2 -p ack -e 40 -c 1 -i 12 -a 1 -x {3.0 1.0 5 ------- null}
- -t 0.35184 -s 3 -d 2 -p ack -e 40 -c 1 -i 12 -a 1 -x {3.0 1.0 5 ------- null}
h -t 0.35184 -s 3 -d 2 -p ack -e 40 -c 1 -i 12 -a 1 -x {3.0 1.0 -1 ------- null}
r -t 0.35384 -s 3 -d 2 -p ack -e 40 -c 1 -i 11 -a 1 -x {3.0 1.0 4 ------- null}
+ -t 0.35384 -s 2 -d 1 -p ack -e 40 -c 1 -i 11 -a 1 -x {3.0 1.0 4 ------- null}
- -t 0.35384 -s 2 -d 1 -p ack -e 40 -c 1 -i 11 -a 1 -x {3.0 1.0 4 ------- null}
h -t 0.35384 -s 2 -d 1 -p ack -e 40 -c 1 -i 11 -a 1 -x {3.0 1.0 -1 ------- null}
r -t 0.35584 -s 2 -d 1 -p ack -e 40 -c 1 -i 10 -a 1 -x {3.0 1.0 3 ------- null}
+ -t 0.35584 -s 1 -d 2 -p tcp -e 1040 -c 1 -i 13 -a 1 -x {1.0 3.0 7 ------- null}
- -t 0.35584 -s 1 -d 2 -p tcp -e 1040 -c 1 -i 13 -a 1 -x {1.0 3.0 7 ------- null}
h -t 0.35584 -s 1 -d 2 -p tcp -e 1040 -c 1 -i 13 -a 1 -x {1.0 3.0 -1 ------- null}
+ -t 0.35584 -s 1 -d 2 -p tcp -e 1040 -c 1 -i 14 -a 1 -x {1.0 3.0 8 ------- null}
r -t 0.36016 -s 2 -d 3 -p tcp -e 1040 -c 1 -i 9 -a 1 -x {1.0 3.0 6 ------- null}
+ -t 0.36016 -s 3 -d 2 -p ack -e 40 -c 1 -i 15 -a 1 -x {3.0 1.0 6 ------- null}
- -t 0.36016 -s 3 -d 2 -p ack -e 40 -c 1 -i 15 -a 1 -x {3.0 1.0 6 ------- null}
h -t 0.36016 -s 3 -d 2 -p ack -e 40 -c 1 -i 15 -a 1 -x {3.0 1.0 -1 ------- null}
r -t 0.36216 -s 3 -d 2 -p ack -e 40 -c 1 -i 12 -a 1 -x {3.0 1.0 5 ------- null}
+ -t 0.36216 -s 2 -d 1 -p ack -e 40 -c 1 -i 12 -a 1 -x {3.0 1.0 5 ------- null}
- -t 0.36216 -s 2 -d 1 -p ack -e 40 -c 1 -i 12 -a 1 -x {3.0 1.0 5 ------- null}
h -t 0.36216 -s 2 -d 1 -p ack -e 40 -c 1 -i 12 -a 1 -x {3.0 1.0 -1 ------- null}
r -t 0.36416 -s 2 -d 1 -p ack -e 40 -c 1 -i 11 -a 1 -x {3.0 1.0 4 ------- null}
+ -t 0.36416 -s 1 -d 2 -p tcp -e 1040 -c 1 -i 16 -a 1 -x {1.0 3.0 9 ------- null}
+ -t 0.36416 -s 1 -d 2 -p tcp -e 1040 -c 1 -i 17 -a 1 -x {1.0 3.0 10 ------- null}
- -t 0.36416 -s 1 -d 2 -p tcp -e 1040 -c 1 -i 14 -a 1 -x {1.0 3.0 8 ------- null}
h -t 0.36416 -s 1 -d 2 -p tcp -e 1040 -c 1 -i 14 -a 1 -x {1.0 3.0 -1 ------- null}
r -t 0.37048 -s 3 -d 2 -p ack -e 40 -c 1 -i 15 -a 1 -x {3.0 1.0 6 ------- null}
+ -t 0.37048 -s 2 -d 1 -p ack -e 40 -c 1 -i 15 -a 1 -x {3.0 1.0 6 ------- null}
- -t 0.37048 -s 2 -d 1 -p ack -e 40 -c 1 -i 15 -a 1 -x {3.0 1.0 6 ------- null}
h -t 0.37048 -s 2 -d 1 -p ack -e 40 -c 1 -i 15 -a 1 -x {3.0 1.0 -1 ------- null}
r -t 0.37248 -s 2 -d 1 -p ack -e 40 -c 1 -i 12 -a 1 -x {3.0 1.0 5 ------- null}
+ -t 0.37248 -s 1 -d 2 -p tcp -e 1040 -c 1 -i 18 -a 1 -x {1.0 3.0 11 ------- null}
+ -t 0.37248 -s 1 -d 2 -p tcp -e 1040 -c 1 -i 19 -a 1 -x {1.0 3.0 12 ------- null}
- -t 0.37248 -s 1 -d 2 -p tcp -e 1040 -c 1 -i 16 -a 1 -x {1.0 3.0 9 ------- null}
h -t 0.37248 -s 1 -d 2 -p tcp -e 1040 -c 1 -i 16 -a 1 -x {1.0 3.0 -1 ------- null}
r -t 0.37416 -s 1 -d 2 -p tcp -e 1040 -c 1 -i 13 -a 1 -x {1.0 3.0 7 ------- null}
+ -t 0.37416 -s 2 -d 3 -p tcp -e 1040 -c 1 -i 13 -a 1 -x {1.0 3.0 7 ------- null}
- -t 0.37416 -s 2 -d 3 -p tcp -e 1040 -c 1 -i 13 -a 1 -x {1.0 3.0 7 ------- null}
h -t 0.37416 -s 2 -d 3 -p tcp -e 1040 -c 1 -i 13 -a 1 -x {1.0 3.0 -1 ------- null}
r -t 0.3808 -s 2 -d 1 -p ack -e 40 -c 1 -i 15 -a 1 -x {3.0 1.0 6 ------- null}
+ -t 0.3808 -s 1 -d 2 -p tcp -e 1040 -c 1 -i 20 -a 1 -x {1.0 3.0 13 ------- null}
+ -t 0.3808 -s 1 -d 2 -p tcp -e 1040 -c 1 -i 21 -a 1 -x {1.0 3.0 14 ------- null}
- -t 0.3808 -s 1 -d 2 -p tcp -e 1040 -c 1 -i 17 -a 1 -x {1.0 3.0 10 ------- null}
h -t 0.3808 -s 1 -d 2 -p tcp -e 1040 -c 1 -i 17 -a 1 -x {1.0 3.0 -1 ------- null}
r -t 0.38248 -s 1 -d 2 -p tcp -e 1040 -c 1 -i 14 -a 1 -x {1.0 3.0 8 ------- null}
+ -t 0.38248 -s 2 -d 3 -p tcp -e 1040 -c 1 -i 14 -a 1 -x {1.0 3.0 8 ------- null}
- -t 0.38248 -s 2 -d 3 -p tcp -e 1040 -c 1 -i 14 -a 1 -x {1.0 3.0 8 ------- null}
h -t 0.38248 -s 2 -d 3 -p tcp -e 1040 -c 1 -i 14 -a 1 -x {1.0 3.0 -1 ------- null}
- -t 0.38912 -s 1 -d 2 -p tcp -e 1040 -c 1 -i 18 -a 1 -x {1.0 3.0 11 ------- null}
h -t 0.38912 -s 1 -d 2 -p tcp -e 1040 -c 1 -i 18 -a 1 -x {1.0 3.0 -1 ------- null}
r -t 0.3908 -s 1 -d 2 -p tcp -e 1040 -c 1 -i 16 -a 1 -x {1.0 3.0 9 ------- null}
+ -t 0.3908 -s 2 -d 3 -p tcp -e 1040 -c 1 -i 16 -a 1 -x {1.0 3.0 9 ------- null}
- -t 0.3908 -s 2 -d 3 -p tcp -e 1040 -c 1 -i 16 -a 1 -x {1.0 3.0 9 ------- null}
h -t 0.3908 -s 2 -d 3 -p tcp -e 1040 -c 1 -i 16 -a 1 -x {1.0 3.0 -1 ------- null}
r -t 0.39248 -s 2 -d 3 -p tcp -e 1040 -c 1 -i 13 -a 1 -x {1.0 3.0 7 ------- null}
+ -t 0.39248 -s 3 -d 2 -p ack -e 40 -c 1 -i 22 -a 1 -x {3.0 1.0 7 ------- null}
- -t 0.39248 -s 3 -d 2 -p ack -e 40 -c 1 -i 22 -a 1 -x {3.0 1.0 7 ------- null}
h -t 0.39248 -s 3 -d 2 -p ack -e 40 -c 1 -i 22 -a 1 -x {3.0 1.0 -1 ------- null}
- -t 0.39744 -s 1 -d 2 -p tcp -e 1040 -c 1 -i 19 -a 1 -x {1.0 3.0 12 ------- null}
h -t 0.39744 -s 1 -d 2 -p tcp -e 1040 -c 1 -i 19 -a 1 -x {1.0 3.0 -1 ------- null}
r -t 0.39912 -s 1 -d 2 -p tcp -e 1040 -c 1 -i 17 -a 1 -x {1.0 3.0 10 ------- null}
+ -t 0.39912 -s 2 -d 3 -p tcp -e 1040 -c 1 -i 17 -a 1 -x {1.0 3.0 10 ------- null}
- -t 0.39912 -s 2 -d 3 -p tcp -e 1040 -c 1 -i 17 -a 1 -x {1.0 3.0 10 ------- null}
h -t 0.39912 -s 2 -d 3 -p tcp -e 1040 -c 1 -i 17 -a 1 -x {1.0 3.0 -1 ------- null}
r -t 0.4008 -s 2 -d 3 -p tcp -e 1040 -c 1 -i 14 -a 1 -x {1.0 3.0 8 ------- null}
+ -t 0.4008 -s 3 -d 2 -p ack -e 40 -c 1 -i 23 -a 1 -x {3.0 1.0 8 ------- null}
- -t 0.4008 -s 3 -d 2 -p ack -e 40 -c 1 -i 23 -a 1 -x {3.0 1.0 8 ------- null}
h -t 0.4008 -s 3 -d 2 -p ack -e 40 -c 1 -i 23 -a 1 -x {3.0 1.0 -1 ------- null}
r -t 0.4028 -s 3 -d 2 -p ack -e 40 -c 1 -i 22 -a 1 -x {3.0 1.0 7 ------- null}
+ -t 0.4028 -s 2 -d 1 -p ack -e 40 -c 1 -i 22 -a 1 -x {3.0 1.0 7 ------- null}
- -t 0.4028 -s 2 -d 1 -p ack -e 40 -c 1 -i 22 -a 1 -x {3.0 1.0 7 ------- null}
h -t 0.4028 -s 2 -d 1 -p ack -e 40 -c 1 -i 22 -a 1 -x {3.0 1.0 -1 ------- null}
- -t 0.40576 -s 1 -d 2 -p tcp -e 1040 -c 1 -i 20 -a 1 -x {1.0 3.0 13 ------- null}
h -t 0.40576 -s 1 -d 2 -p tcp -e 1040 -c 1 -i 20 -a 1 -x {1.0 3.0 -1 ------- null}
r -t 0.40744 -s 1 -d 2 -p tcp -e 1040 -c 1 -i 18 -a 1 -x {1.0 3.0 11 ------- null}
+ -t 0.40744 -s 2 -d 3 -p tcp -e 1040 -c 1 -i 18 -a 1 -x {1.0 3.0 11 ------- null}
- -t 0.40744 -s 2 -d 3 -p tcp -e 1040 -c 1 -i 18 -a 1 -x {1.0 3.0 11 ------- null}
h -t 0.40744 -s 2 -d 3 -p tcp -e 1040 -c 1 -i 18 -a 1 -x {1.0 3.0 -1 ------- null}
r -t 0.40912 -s 2 -d 3 -p tcp -e 1040 -c 1 -i 16 -a 1 -x {1.0 3.0 9 ------- null}
+ -t 0.40912 -s 3 -d 2 -p ack -e 40 -c 1 -i 24 -a 1 -x {3.0 1.0 9 ------- null}
- -t 0.40912 -s 3 -d 2 -p ack -e 40 -c 1 -i 24 -a 1 -x {3.0 1.0 9 ------- null}
h -t 0.40912 -s 3 -d 2 -p ack -e 40 -c 1 -i 24 -a 1 -x {3.0 1.0 -1 ------- null}
r -t 0.41112 -s 3 -d 2 -p ack -e 40 -c 1 -i 23 -a 1 -x {3.0 1.0 8 ------- null}
+ -t 0.41112 -s 2 -d 1 -p ack -e 40 -c 1 -i 23 -a 1 -x {3.0 1.0 8 ------- null}
- -t 0.41112 -s 2 -d 1 -p ack -e 40 -c 1 -i 23 -a 1 -x {3.0 1.0 8 ------- null}
h -t 0.41112 -s 2 -d 1 -p ack -e 40 -c 1 -i 23 -a 1 -x {3.0 1.0 -1 ------- null}
r -t 0.41312 -s 2 -d 1 -p ack -e 40 -c 1 -i 22 -a 1 -x {3.0 1.0 7 ------- null}
+ -t 0.41312 -s 1 -d 2 -p tcp -e 1040 -c 1 -i 25 -a 1 -x {1.0 3.0 15 ------- null}
+ -t 0.41312 -s 1 -d 2 -p tcp -e 1040 -c 1 -i 26 -a 1 -x {1.0 3.0 16 ------- null}
- -t 0.41408 -s 1 -d 2 -p tcp -e 1040 -c 1 -i 21 -a 1 -x {1.0 3.0 14 ------- null}
h -t 0.41408 -s 1 -d 2 -p tcp -e 1040 -c 1 -i 21 -a 1 -x {1.0 3.0 -1 ------- null}
r -t 0.41576 -s 1 -d 2 -p tcp -e 1040 -c 1 -i 19 -a 1 -x {1.0 3.0 12 ------- null}
+ -t 0.41576 -s 2 -d 3 -p tcp -e 1040 -c 1 -i 19 -a 1 -x {1.0 3.0 12 ------- null}
- -t 0.41576 -s 2 -d 3 -p tcp -e 1040 -c 1 -i 19 -a 1 -x {1.0 3.0 12 ------- null}
h -t 0.41576 -s 2 -d 3 -p tcp -e 1040 -c 1 -i 19 -a 1 -x {1.0 3.0 -1 ------- null}
r -t 0.41744 -s 2 -d 3 -p tcp -e 1040 -c 1 -i 17 -a 1 -x {1.0 3.0 10 ------- null}
+ -t 0.41744 -s 3 -d 2 -p ack -e 40 -c 1 -i 27 -a 1 -x {3.0 1.0 10 ------- null}
- -t 0.41744 -s 3 -d 2 -p ack -e 40 -c 1 -i 27 -a 1 -x {3.0 1.0 10 ------- null}
h -t 0.41744 -s 3 -d 2 -p ack -e 40 -c 1 -i 27 -a 1 -x {3.0 1.0 -1 ------- null}
r -t 0.41944 -s 3 -d 2 -p ack -e 40 -c 1 -i 24 -a 1 -x {3.0 1.0 9 ------- null}
+ -t 0.41944 -s 2 -d 1 -p ack -e 40 -c 1 -i 24 -a 1 -x {3.0 1.0 9 ------- null}
- -t 0.41944 -s 2 -d 1 -p ack -e 40 -c 1 -i 24 -a 1 -x {3.0 1.0 9 ------- null}
h -t 0.41944 -s 2 -d 1 -p ack -e 40 -c 1 -i 24 -a 1 -x {3.0 1.0 -1 ------- null}
r -t 0.42144 -s 2 -d 1 -p ack -e 40 -c 1 -i 23 -a 1 -x {3.0 1.0 8 ------- null}
+ -t 0.42144 -s 1 -d 2 -p tcp -e 1040 -c 1 -i 28 -a 1 -x {1.0 3.0 17 ------- null}
+ -t 0.42144 -s 1 -d 2 -p tcp -e 1040 -c 1 -i 29 -a 1 -x {1.0 3.0 18 ------- null}
- -t 0.4224 -s 1 -d 2 -p tcp -e 1040 -c 1 -i 25 -a 1 -x {1.0 3.0 15 ------- null}
h -t 0.4224 -s 1 -d 2 -p tcp -e 1040 -c 1 -i 25 -a 1 -x {1.0 3.0 -1 ------- null}
r -t 0.42408 -s 1 -d 2 -p tcp -e 1040 -c 1 -i 20 -a 1 -x {1.0 3.0 13 ------- null}
+ -t 0.42408 -s 2 -d 3 -p tcp -e 1040 -c 1 -i 20 -a 1 -x {1.0 3.0 13 ------- null}
- -t 0.42408 -s 2 -d 3 -p tcp -e 1040 -c 1 -i 20 -a 1 -x {1.0 3.0 13 ------- null}
h -t 0.42408 -s 2 -d 3 -p tcp -e 1040 -c 1 -i 20 -a 1 -x {1.0 3.0 -1 ------- null}
r -t 0.42576 -s 2 -d 3 -p tcp -e 1040 -c 1 -i 18 -a 1 -x {1.0 3.0 11 ------- null}
+ -t 0.42576 -s 3 -d 2 -p ack -e 40 -c 1 -i 30 -a 1 -x {3.0 1.0 11 ------- null}
- -t 0.42576 -s 3 -d 2 -p ack -e 40 -c 1 -i 30 -a 1 -x {3.0 1.0 11 ------- null}
h -t 0.42576 -s 3 -d 2 -p ack -e 40 -c 1 -i 30 -a 1 -x {3.0 1.0 -1 ------- null}
r -t 0.42776 -s 3 -d 2 -p ack -e 40 -c 1 -i 27 -a 1 -x {3.0 1.0 10 ------- null}
+ -t 0.42776 -s 2 -d 1 -p ack -e 40 -c 1 -i 27 -a 1 -x {3.0 1.0 10 ------- null}
- -t 0.42776 -s 2 -d 1 -p ack -e 40 -c 1 -i 27 -a 1 -x {3.0 1.0 10 ------- null}
h -t 0.42776 -s 2 -d 1 -p ack -e 40 -c 1 -i 27 -a 1 -x {3.0 1.0 -1 ------- null}
r -t 0.42976 -s 2 -d 1 -p ack -e 40 -c 1 -i 24 -a 1 -x {3.0 1.0 9 ------- null}
+ -t 0.42976 -s 1 -d 2 -p tcp -e 1040 -c 1 -i 31 -a 1 -x {1.0 3.0 19 ------- null}
+ -t 0.42976 -s 1 -d 2 -p tcp -e 1040 -c 1 -i 32 -a 1 -x {1.0 3.0 20 ------- null}
- -t 0.43072 -s 1 -d 2 -p tcp -e 1040 -c 1 -i 26 -a 1 -x {1.0 3.0 16 ------- null}
h -t 0.43072 -s 1 -d 2 -p tcp -e 1040 -c 1 -i 26 -a 1 -x {1.0 3.0 -1 ------- null}
r -t 0.4324 -s 1 -d 2 -p tcp -e 1040 -c 1 -i 21 -a 1 -x {1.0 3.0 14 ------- null}
+ -t 0.4324 -s 2 -d 3 -p tcp -e 1040 -c 1 -i 21 -a 1 -x {1.0 3.0 14 ------- null}
- -t 0.4324 -s 2 -d 3 -p tcp -e 1040 -c 1 -i 21 -a 1 -x {1.0 3.0 14 ------- null}
h -t 0.4324 -s 2 -d 3 -p tcp -e 1040 -c 1 -i 21 -a 1 -x {1.0 3.0 -1 ------- null}
r -t 0.43408 -s 2 -d 3 -p tcp -e 1040 -c 1 -i 19 -a 1 -x {1.0 3.0 12 ------- null}
+ -t 0.43408 -s 3 -d 2 -p ack -e 40 -c 1 -i 33 -a 1 -x {3.0 1.0 12 ------- null}
- -t 0.43408 -s 3 -d 2 -p ack -e 40 -c 1 -i 33 -a 1 -x {3.0 1.0 12 ------- null}
h -t 0.43408 -s 3 -d 2 -p ack -e 40 -c 1 -i 33 -a 1 -x {3.0 1.0 -1 ------- null}
r -t 0.43608 -s 3 -d 2 -p ack -e 40 -c 1 -i 30 -a 1 -x {3.0 1.0 11 ------- null}
+ -t 0.43608 -s 2 -d 1 -p ack -e 40 -c 1 -i 30 -a 1 -x {3.0 1.0 11 ------- null}
- -t 0.43608 -s 2 -d 1 -p ack -e 40 -c 1 -i 30 -a 1 -x {3.0 1.0 11 ------- null}
h -t 0.43608 -s 2 -d 1 -p ack -e 40 -c 1 -i 30 -a 1 -x {3.0 1.0 -1 ------- null}
r -t 0.43808 -s 2 -d 1 -p ack -e 40 -c 1 -i 27 -a 1 -x {3.0 1.0 10 ------- null}
+ -t 0.43808 -s 1 -d 2 -p tcp -e 1040 -c 1 -i 34 -a 1 -x {1.0 3.0 21 ------- null}
+ -t 0.43808 -s 1 -d 2 -p tcp -e 1040 -c 1 -i 35 -a 1 -x {1.0 3.0 22 ------- null}
- -t 0.43904 -s 1 -d 2 -p tcp -e 1040 -c 1 -i 28 -a 1 -x {1.0 3.0 17 ------- null}
h -t 0.43904 -s 1 -d 2 -p tcp -e 1040 -c 1 -i 28 -a 1 -x {1.0 3.0 -1 ------- null}
r -t 0.44072 -s 1 -d 2 -p tcp -e 1040 -c 1 -i 25 -a 1 -x {1.0 3.0 15 ------- null}
+ -t 0.44072 -s 2 -d 3 -p tcp -e 1040 -c 1 -i 25 -a 1 -x {1.0 3.0 15 ------- null}
- -t 0.44072 -s 2 -d 3 -p tcp -e 1040 -c 1 -i 25 -a 1 -x {1.0 3.0 15 ------- null}
h -t 0.44072 -s 2 -d 3 -p tcp -e 1040 -c 1 -i 25 -a 1 -x {1.0 3.0 -1 ------- null}
r -t 0.4424 -s 2 -d 3 -p tcp -e 1040 -c 1 -i 20 -a 1 -x {1.0 3.0 13 ------- null}
+ -t 0.4424 -s 3 -d 2 -p ack -e 40 -c 1 -i 36 -a 1 -x {3.0 1.0 13 ------- null}
- -t 0.4424 -s 3 -d 2 -p ack -e 40 -c 1 -i 36 -a 1 -x {3.0 1.0 13 ------- null}
h -t 0.4424 -s 3 -d 2 -p ack -e 40 -c 1 -i 36 -a 1 -x {3.0 1.0 -1 ------- null}
r -t 0.4444 -s 3 -d 2 -p ack -e 40 -c 1 -i 33 -a 1 -x {3.0 1.0 12 ------- null}
+ -t 0.4444 -s 2 -d 1 -p ack -e 40 -c 1 -i 33 -a 1 -x {3.0 1.0 12 ------- null}
- -t 0.4444 -s 2 -d 1 -p ack -e 40 -c 1 -i 33 -a 1 -x {3.0 1.0 12 ------- null}
h -t 0.4444 -s 2 -d 1 -p ack -e 40 -c 1 -i 33 -a 1 -x {3.0 1.0 -1 ------- null}
r -t 0.4464 -s 2 -d 1 -p ack -e 40 -c 1 -i 30 -a 1 -x {3.0 1.0 11 ------- null}
+ -t 0.4464 -s 1 -d 2 -p tcp -e 1040 -c 1 -i 37 -a 1 -x {1.0 3.0 23 ------- null}
+ -t 0.4464 -s 1 -d 2 -p tcp -e 1040 -c 1 -i 38 -a 1 -x {1.0 3.0 24 ------- null}
- -t 0.44736 -s 1 -d 2 -p tcp -e 1040 -c 1 -i 29 -a 1 -x {1.0 3.0 18 ------- null}
h -t 0.44736 -s 1 -d 2 -p tcp -e 1040 -c 1 -i 29 -a 1 -x {1.0 3.0 -1 ------- null}
r -t 0.44904 -s 1 -d 2 -p tcp -e 1040 -c 1 -i 26 -a 1 -x {1.0 3.0 16 ------- null}
+ -t 0.44904 -s 2 -d 3 -p tcp -e 1040 -c 1 -i 26 -a 1 -x {1.0 3.0 16 ------- null}
- -t 0.44904 -s 2 -d 3 -p tcp -e 1040 -c 1 -i 26 -a 1 -x {1.0 3.0 16 ------- null}
h -t 0.44904 -s 2 -d 3 -p tcp -e 1040 -c 1 -i 26 -a 1 -x {1.0 3.0 -1 ------- null}
r -t 0.45072 -s 2 -d 3 -p tcp -e 1040 -c 1 -i 21 -a 1 -x {1.0 3.0 14 ------- null}
+ -t 0.45072 -s 3 -d 2 -p ack -e 40 -c 1 -i 39 -a 1 -x {3.0 1.0 14 ------- null}
- -t 0.45072 -s 3 -d 2 -p ack -e 40 -c 1 -i 39 -a 1 -x {3.0 1.0 14 ------- null}
h -t 0.45072 -s 3 -d 2 -p ack -e 40 -c 1 -i 39 -a 1 -x {3.0 1.0 -1 ------- null}
r -t 0.45272 -s 3 -d 2 -p ack -e 40 -c 1 -i 36 -a 1 -x {3.0 1.0 13 ------- null}
+ -t 0.45272 -s 2 -d 1 -p ack -e 40 -c 1 -i 36 -a 1 -x {3.0 1.0 13 ------- null}
- -t 0.45272 -s 2 -d 1 -p ack -e 40 -c 1 -i 36 -a 1 -x {3.0 1.0 13 ------- null}
h -t 0.45272 -s 2 -d 1 -p ack -e 40 -c 1 -i 36 -a 1 -x {3.0 1.0 -1 ------- null}
r -t 0.45472 -s 2 -d 1 -p ack -e 40 -c 1 -i 33 -a 1 -x {3.0 1.0 12 ------- null}
+ -t 0.45472 -s 1 -d 2 -p tcp -e 1040 -c 1 -i 40 -a 1 -x {1.0 3.0 25 ------- null}
+ -t 0.45472 -s 1 -d 2 -p tcp -e 1040 -c 1 -i 41 -a 1 -x {1.0 3.0 26 ------- null}
- -t 0.45568 -s 1 -d 2 -p tcp -e 1040 -c 1 -i 31 -a 1 -x {1.0 3.0 19 ------- null}
h -t 0.45568 -s 1 -d 2 -p tcp -e 1040 -c 1 -i 31 -a 1 -x {1.0 3.0 -1 ------- null}
r -t 0.45736 -s 1 -d 2 -p tcp -e 1040 -c 1 -i 28 -a 1 -x {1.0 3.0 17 ------- null}
+ -t 0.45736 -s 2 -d 3 -p tcp -e 1040 -c 1 -i 28 -a 1 -x {1.0 3.0 17 ------- null}
- -t 0.45736 -s 2 -d 3 -p tcp -e 1040 -c 1 -i 28 -a 1 -x {1.0 3.0 17 ------- null}
h -t 0.45736 -s 2 -d 3 -p tcp -e 1040 -c 1 -i 28 -a 1 -x {1.0 3.0 -1 ------- null}
r -t 0.45904 -s 2 -d 3 -p tcp -e 1040 -c 1 -i 25 -a 1 -x {1.0 3.0 15 ------- null}
+ -t 0.45904 -s 3 -d 2 -p ack -e 40 -c 1 -i 42 -a 1 -x {3.0 1.0 15 ------- null}
- -t 0.45904 -s 3 -d 2 -p ack -e 40 -c 1 -i 42 -a 1 -x {3.0 1.0 15 ------- null}
h -t 0.45904 -s 3 -d 2 -p ack -e 40 -c 1 -i 42 -a 1 -x {3.0 1.0 -1 ------- null}
r -t 0.46104 -s 3 -d 2 -p ack -e 40 -c 1 -i 39 -a 1 -x {3.0 1.0 14 ------- null}
+ -t 0.46104 -s 2 -d 1 -p ack -e 40 -c 1 -i 39 -a 1 -x {3.0 1.0 14 ------- null}
- -t 0.46104 -s 2 -d 1 -p ack -e 40 -c 1 -i 39 -a 1 -x {3.0 1.0 14 ------- null}
h -t 0.46104 -s 2 -d 1 -p ack -e 40 -c 1 -i 39 -a 1 -x {3.0 1.0 -1 ------- null}
r -t 0.46304 -s 2 -d 1 -p ack -e 40 -c 1 -i 36 -a 1 -x {3.0 1.0 13 ------- null}
+ -t 0.46304 -s 1 -d 2 -p tcp -e 1040 -c 1 -i 43 -a 1 -x {1.0 3.0 27 ------- null}
+ -t 0.46304 -s 1 -d 2 -p tcp -e 1040 -c 1 -i 44 -a 1 -x {1.0 3.0 28 ------- null}
- -t 0.464 -s 1 -d 2 -p tcp -e 1040 -c 1 -i 32 -a 1 -x {1.0 3.0 20 ------- null}
h -t 0.464 -s 1 -d 2 -p tcp -e 1040 -c 1 -i 32 -a 1 -x {1.0 3.0 -1 ------- null}
r -t 0.46568 -s 1 -d 2 -p tcp -e 1040 -c 1 -i 29 -a 1 -x {1.0 3.0 18 ------- null}
+ -t 0.46568 -s 2 -d 3 -p tcp -e 1040 -c 1 -i 29 -a 1 -x {1.0 3.0 18 ------- null}
- -t 0.46568 -s 2 -d 3 -p tcp -e 1040 -c 1 -i 29 -a 1 -x {1.0 3.0 18 ------- null}
h -t 0.46568 -s 2 -d 3 -p tcp -e 1040 -c 1 -i 29 -a 1 -x {1.0 3.0 -1 ------- null}
r -t 0.46736 -s 2 -d 3 -p tcp -e 1040 -c 1 -i 26 -a 1 -x {1.0 3.0 16 ------- null}
+ -t 0.46736 -s 3 -d 2 -p ack -e 40 -c 1 -i 45 -a 1 -x {3.0 1.0 16 ------- null}
- -t 0.46736 -s 3 -d 2 -p ack -e 40 -c 1 -i 45 -a 1 -x {3.0 1.0 16 ------- null}
h -t 0.46736 -s 3 -d 2 -p ack -e 40 -c 1 -i 45 -a 1 -x {3.0 1.0 -1 ------- null}
r -t 0.46936 -s 3 -d 2 -p ack -e 40 -c 1 -i 42 -a 1 -x {3.0 1.0 15 ------- null}
+ -t 0.46936 -s 2 -d 1 -p ack -e 40 -c 1 -i 42 -a 1 -x {3.0 1.0 15 ------- null}
- -t 0.46936 -s 2 -d 1 -p ack -e 40 -c 1 -i 42 -a 1 -x {3.0 1.0 15 ------- null}
h -t 0.46936 -s 2 -d 1 -p ack -e 40 -c 1 -i 42 -a 1 -x {3.0 1.0 -1 ------- null}
r -t 0.47136 -s 2 -d 1 -p ack -e 40 -c 1 -i 39 -a 1 -x {3.0 1.0 14 ------- null}
+ -t 0.47136 -s 1 -d 2 -p tcp -e 1040 -c 1 -i 46 -a 1 -x {1.0 3.0 29 ------- null}
+ -t 0.47136 -s 1 -d 2 -p tcp -e 1040 -c 1 -i 47 -a 1 -x {1.0 3.0 30 ------- null}
- -t 0.47232 -s 1 -d 2 -p tcp -e 1040 -c 1 -i 34 -a 1 -x {1.0 3.0 21 ------- null}
h -t 0.47232 -s 1 -d 2 -p tcp -e 1040 -c 1 -i 34 -a 1 -x {1.0 3.0 -1 ------- null}
r -t 0.474 -s 1 -d 2 -p tcp -e 1040 -c 1 -i 31 -a 1 -x {1.0 3.0 19 ------- null}
+ -t 0.474 -s 2 -d 3 -p tcp -e 1040 -c 1 -i 31 -a 1 -x {1.0 3.0 19 ------- null}
- -t 0.474 -s 2 -d 3 -p tcp -e 1040 -c 1 -i 31 -a 1 -x {1.0 3.0 19 ------- null}
h -t 0.474 -s 2 -d 3 -p tcp -e 1040 -c 1 -i 31 -a 1 -x {1.0 3.0 -1 ------- null}
r -t 0.47568 -s 2 -d 3 -p tcp -e 1040 -c 1 -i 28 -a 1 -x {1.0 3.0 17 ------- null}
+ -t 0.47568 -s 3 -d 2 -p ack -e 40 -c 1 -i 48 -a 1 -x {3.0 1.0 17 ------- null}
- -t 0.47568 -s 3 -d 2 -p ack -e 40 -c 1 -i 48 -a 1 -x {3.0 1.0 17 ------- null}
h -t 0.47568 -s 3 -d 2 -p ack -e 40 -c 1 -i 48 -a 1 -x {3.0 1.0 -1 ------- null}
r -t 0.47768 -s 3 -d 2 -p ack -e 40 -c 1 -i 45 -a 1 -x {3.0 1.0 16 ------- null}
+ -t 0.47768 -s 2 -d 1 -p ack -e 40 -c 1 -i 45 -a 1 -x {3.0 1.0 16 ------- null}
- -t 0.47768 -s 2 -d 1 -p ack -e 40 -c 1 -i 45 -a 1 -x {3.0 1.0 16 ------- null}
h -t 0.47768 -s 2 -d 1 -p ack -e 40 -c 1 -i 45 -a 1 -x {3.0 1.0 -1 ------- null}
r -t 0.47968 -s 2 -d 1 -p ack -e 40 -c 1 -i 42 -a 1 -x {3.0 1.0 15 ------- null}
+ -t 0.47968 -s 1 -d 2 -p tcp -e 1040 -c 1 -i 49 -a 1 -x {1.0 3.0 31 ------- null}
+ -t 0.47968 -s 1 -d 2 -p tcp -e 1040 -c 1 -i 50 -a 1 -x {1.0 3.0 32 ------- null}
- -t 0.48064 -s 1 -d 2 -p tcp -e 1040 -c 1 -i 35 -a 1 -x {1.0 3.0 22 ------- null}
h -t 0.48064 -s 1 -d 2 -p tcp -e 1040 -c 1 -i 35 -a 1 -x {1.0 3.0 -1 ------- null}
r -t 0.48232 -s 1 -d 2 -p tcp -e 1040 -c 1 -i 32 -a 1 -x {1.0 3.0 20 ------- null}
+ -t 0.48232 -s 2 -d 3 -p tcp -e 1040 -c 1 -i 32 -a 1 -x {1.0 3.0 20 ------- null}
- -t 0.48232 -s 2 -d 3 -p tcp -e 1040 -c 1 -i 32 -a 1 -x {1.0 3.0 20 ------- null}
h -t 0.48232 -s 2 -d 3 -p tcp -e 1040 -c 1 -i 32 -a 1 -x {1.0 3.0 -1 ------- null}
r -t 0.484 -s 2 -d 3 -p tcp -e 1040 -c 1 -i 29 -a 1 -x {1.0 3.0 18 ------- null}
+ -t 0.484 -s 3 -d 2 -p ack -e 40 -c 1 -i 51 -a 1 -x {3.0 1.0 18 ------- null}
- -t 0.484 -s 3 -d 2 -p ack -e 40 -c 1 -i 51 -a 1 -x {3.0 1.0 18 ------- null}
h -t 0.484 -s 3 -d 2 -p ack -e 40 -c 1 -i 51 -a 1 -x {3.0 1.0 -1 ------- null}
r -t 0.486 -s 3 -d 2 -p ack -e 40 -c 1 -i 48 -a 1 -x {3.0 1.0 17 ------- null}
+ -t 0.486 -s 2 -d 1 -p ack -e 40 -c 1 -i 48 -a 1 -x {3.0 1.0 17 ------- null}
- -t 0.486 -s 2 -d 1 -p ack -e 40 -c 1 -i 48 -a 1 -x {3.0 1.0 17 ------- null}
h -t 0.486 -s 2 -d 1 -p ack -e 40 -c 1 -i 48 -a 1 -x {3.0 1.0 -1 ------- null}
r -t 0.488 -s 2 -d 1 -p ack -e 40 -c 1 -i 45 -a 1 -x {3.0 1.0 16 ------- null}
+ -t 0.488 -s 1 -d 2 -p tcp -e 1040 -c 1 -i 52 -a 1 -x {1.0 3.0 33 ------- null}
+ -t 0.488 -s 1 -d 2 -p tcp -e 1040 -c 1 -i 53 -a 1 -x {1.0 3.0 34 ------- null}
- -t 0.48896 -s 1 -d 2 -p tcp -e 1040 -c 1 -i 37 -a 1 -x {1.0 3.0 23 ------- null}
h -t 0.48896 -s 1 -d 2 -p tcp -e 1040 -c 1 -i 37 -a 1 -x {1.0 3.0 -1 ------- null}
r -t 0.49064 -s 1 -d 2 -p tcp -e 1040 -c 1 -i 34 -a 1 -x {1.0 3.0 21 ------- null}
+ -t 0.49064 -s 2 -d 3 -p tcp -e 1040 -c 1 -i 34 -a 1 -x {1.0 3.0 21 ------- null}
- -t 0.49064 -s 2 -d 3 -p tcp -e 1040 -c 1 -i 34 -a 1 -x {1.0 3.0 21 ------- null}
h -t 0.49064 -s 2 -d 3 -p tcp -e 1040 -c 1 -i 34 -a 1 -x {1.0 3.0 -1 ------- null}
r -t 0.49232 -s 2 -d 3 -p tcp -e 1040 -c 1 -i 31 -a 1 -x {1.0 3.0 19 ------- null}
+ -t 0.49232 -s 3 -d 2 -p ack -e 40 -c 1 -i 54 -a 1 -x {3.0 1.0 19 ------- null}
- -t 0.49232 -s 3 -d 2 -p ack -e 40 -c 1 -i 54 -a 1 -x {3.0 1.0 19 ------- null}
h -t 0.49232 -s 3 -d 2 -p ack -e 40 -c 1 -i 54 -a 1 -x {3.0 1.0 -1 ------- null}
r -t 0.49432 -s 3 -d 2 -p ack -e 40 -c 1 -i 51 -a 1 -x {3.0 1.0 18 ------- null}
+ -t 0.49432 -s 2 -d 1 -p ack -e 40 -c 1 -i 51 -a 1 -x {3.0 1.0 18 ------- null}
- -t 0.49432 -s 2 -d 1 -p ack -e 40 -c 1 -i 51 -a 1 -x {3.0 1.0 18 ------- null}
h -t 0.49432 -s 2 -d 1 -p ack -e 40 -c 1 -i 51 -a 1 -x {3.0 1.0 -1 ------- null}
r -t 0.49632 -s 2 -d 1 -p ack -e 40 -c 1 -i 48 -a 1 -x {3.0 1.0 17 ------- null}
+ -t 0.49632 -s 1 -d 2 -p tcp -e 1040 -c 1 -i 55 -a 1 -x {1.0 3.0 35 ------- null}
+ -t 0.49632 -s 1 -d 2 -p tcp -e 1040 -c 1 -i 56 -a 1 -x {1.0 3.0 36 ------- null}
- -t 0.49728 -s 1 -d 2 -p tcp -e 1040 -c 1 -i 38 -a 1 -x {1.0 3.0 24 ------- null}
h -t 0.49728 -s 1 -d 2 -p tcp -e 1040 -c 1 -i 38 -a 1 -x {1.0 3.0 -1 ------- null}
r -t 0.49896 -s 1 -d 2 -p tcp -e 1040 -c 1 -i 35 -a 1 -x {1.0 3.0 22 ------- null}
+ -t 0.49896 -s 2 -d 3 -p tcp -e 1040 -c 1 -i 35 -a 1 -x {1.0 3.0 22 ------- null}
- -t 0.49896 -s 2 -d 3 -p tcp -e 1040 -c 1 -i 35 -a 1 -x {1.0 3.0 22 ------- null}
h -t 0.49896 -s 2 -d 3 -p tcp -e 1040 -c 1 -i 35 -a 1 -x {1.0 3.0 -1 ------- null}
r -t 0.50064 -s 2 -d 3 -p tcp -e 1040 -c 1 -i 32 -a 1 -x {1.0 3.0 20 ------- null}
+ -t 0.50064 -s 3 -d 2 -p ack -e 40 -c 1 -i 57 -a 1 -x {3.0 1.0 20 ------- null}
- -t 0.50064 -s 3 -d 2 -p ack -e 40 -c 1 -i 57 -a 1 -x {3.0 1.0 20 ------- null}
h -t 0.50064 -s 3 -d 2 -p ack -e 40 -c 1 -i 57 -a 1 -x {3.0 1.0 -1 ------- null}
r -t 0.50264 -s 3 -d 2 -p ack -e 40 -c 1 -i 54 -a 1 -x {3.0 1.0 19 ------- null}
+ -t 0.50264 -s 2 -d 1 -p ack -e 40 -c 1 -i 54 -a 1 -x {3.0 1.0 19 ------- null}
- -t 0.50264 -s 2 -d 1 -p ack -e 40 -c 1 -i 54 -a 1 -x {3.0 1.0 19 ------- null}
h -t 0.50264 -s 2 -d 1 -p ack -e 40 -c 1 -i 54 -a 1 -x {3.0 1.0 -1 ------- null}